LAMMPS (9 Nov 2016)
OMP_NUM_THREADS environment is not set. Defaulting to 1 thread. (../comm.cpp:90)
  using 1 OpenMP thread(s) per MPI task
# 3D LENNARD-JONES GAS #

units lj            # Lennard-Jones units
dimension 3
boundary p p p      # Periodic boundaries
atom_style atomic   # Simplest complexity of each particle

lattice fcc 0.03   # Face-centered-cubic shape of lattice, density scale
Lattice spacing in x,y,z = 5.10873 5.10873 5.10873
region simbox block 0 5 0 5 0 5 # Defines region of block
create_box 1 simbox # Creates box with 1 type of atoms
Created orthogonal box = (0 0 0) to (25.5436 25.5436 25.5436)
  1 by 1 by 1 MPI processor grid
create_atoms 1 box  # Fills box with atoms
Created 500 atoms

mass 1 1.0          # Atoms of type 1 with in Lennard-Jones units
velocity all create 2.5 87287 dist uniform
# Velocity -> temperature 2.5 and seed

pair_style lj/cut 3.0 # Interaction is zero if distance is >3.0 lj
pair_coeff 1 1 1.0 1.0 3.0 # Interaction of atoms type 1 with type 1
# with 1.0 times simga, 1.0 times epsilon value and cutoff 3.0

compute KE all ke
compute PE all pe
compute TEMP all temp
compute PRESS all pressure thermo_temp

fix 1 all nve       # Constant number (n) of type 1 atoms
                    # Constant volume of simbox
                    # Constant energy

# Simulation control:
timestep 0.005
thermo_style custom pe ke press temp
fix 2 all ave/time 1 1 1 c_KE c_PE c_PRESS c_TEMP file compute003.txt
dump 1 all custom 10 dump.lammpstrj id type x y z vx vy vz
thermo 100          # Log every 100 steps
run 10000            # Timesteps
Neighbor list info ...
  1 neighbor list requests
  update every 1 steps, delay 10 steps, check yes
  max neighbors/atom: 2000, page size: 100000
  master list distance cutoff = 3.3
  ghost atom cutoff = 3.3
  binsize = 1.65 -> bins = 16 16 16
Memory usage per processor = 3.80708 Mbytes
PotEng KinEng Press Temp 
           0       3.7425      0.07485          2.5 
-0.053064288    3.7888175  0.078807673    2.5309402 
 -0.12013167    3.8542528  0.081401794    2.5746512 
 -0.13197259    3.8660011  0.082143734    2.5824991 
 -0.15818738    3.8918387  0.077951025    2.5997586 
 -0.18116023    3.9144077  0.074205213    2.6148348 
 -0.18054671    3.9135237  0.076246574    2.6142443 
 -0.16840275    3.9018465  0.075877535    2.6064439 
 -0.19172383    3.9246895  0.076154294    2.6217031 
 -0.19199759    3.9250303  0.075919429    2.6219308 
 -0.19026868    3.9234162  0.074439809    2.6208525 
 -0.18258402    3.9157999  0.076742072    2.6157648 
 -0.14763785    3.8808919  0.078217706    2.5924462 
 -0.17847379     3.911459  0.078660036     2.612865 
 -0.16604702     3.898896  0.077013138    2.6044729 
 -0.18350063    3.9164169   0.07498468     2.616177 
 -0.17144238    3.9046044  0.076247287    2.6082861 
 -0.15999847    3.8934755   0.07950609     2.600852 
 -0.18824613    3.9216901  0.074922616    2.6196995 
 -0.19225415     3.925613  0.075925189      2.62232 
  -0.1977998    3.9310366  0.076121543     2.625943 
 -0.17126883    3.9048852  0.076097356    2.6084737 
 -0.18051453    3.9139632  0.076125314    2.6145379 
 -0.17817541    3.9111186  0.074514669    2.6126376 
 -0.18208187    3.9153012  0.075081703    2.6154317 
 -0.19517204    3.9281885  0.077815474    2.6240404 
 -0.17802626    3.9111175  0.080270634    2.6126369 
 -0.17667744    3.9100238  0.075490827    2.6119063 
   -0.190039    3.9232237  0.073739405    2.6207239 
 -0.15739292    3.8907561  0.078903412    2.5990355 
 -0.20105411    3.9341415  0.076690828     2.628017 
 -0.20153799    3.9343914  0.077518816     2.628184 
 -0.19617209    3.9292505   0.07504829    2.6247498 
 -0.18807187     3.921093  0.072255293    2.6193006 
 -0.18799166    3.9208829   0.07480701    2.6191603 
 -0.15671646     3.889387  0.085184825    2.5981209 
 -0.16763111    3.9005902  0.076853809    2.6056047 
 -0.16965205    3.9027662  0.079255136    2.6070582 
 -0.19999388    3.9330122  0.079555252    2.6272627 
  -0.1844423    3.9178721  0.075040513     2.617149 
 -0.19498131    3.9290059  0.079029515    2.6245865 
 -0.13833172    3.8719046  0.076520094    2.5864426 
 -0.19227094    3.9254247  0.073379199    2.6221942 
 -0.18376958    3.9170392  0.076670321    2.6165926 
 -0.17863354     3.911839  0.077409808    2.6131189 
 -0.19764606    3.9307115  0.075832513    2.6257258 
  -0.1735044    3.9068964  0.078384787    2.6098173 
 -0.15024032    3.8835729  0.077835585    2.5942371 
 -0.16101752    3.8942701  0.079108978    2.6013829 
 -0.18870032    3.9215081  0.078847096    2.6195779 
 -0.18772301    3.9207306  0.076080193    2.6190585 
 -0.18080819    3.9138701   0.07859668    2.6144757 
 -0.15242886    3.8858101  0.081693962    2.5957315 
 -0.19321486    3.9258248  0.080200878    2.6224614 
 -0.18055535    3.9129899  0.077597942    2.6138877 
 -0.19061938    3.9233337   0.08249526    2.6207974 
 -0.18108136    3.9139274  0.077826955     2.614514 
 -0.20090998    3.9338293  0.078615465    2.6278085 
 -0.17538299    3.9087339  0.081086454    2.6110447 
 -0.14951373    3.8827982  0.078779463    2.5937195 
 -0.19408868    3.9270693  0.076430194    2.6232928 
 -0.18363517    3.9167922  0.079105201    2.6164276 
 -0.18134959    3.9144669  0.076097111    2.6148743 
 -0.20015219    3.9327109  0.080296423    2.6270614 
 -0.19579053    3.9287228  0.076430572    2.6243973 
 -0.18925411    3.9223663  0.072795164    2.6201512 
 -0.15394817    3.8870749  0.081876598    2.5965764 
 -0.19985867    3.9328646  0.076445352    2.6271641 
 -0.20294856    3.9360014   0.07668821    2.6292594 
 -0.19861342    3.9309169  0.079393618     2.625863 
 -0.19713348    3.9294706  0.075857971    2.6248969 
 -0.16402693    3.8971284  0.080696192    2.6032922 
 -0.17162556    3.9046889  0.078184566    2.6083426 
  -0.2040384     3.937117   0.07705034    2.6300047 
 -0.19117812    3.9246318  0.076908499    2.6216645 
 -0.19966065    3.9327047  0.074280973    2.6270572 
 -0.19200071    3.9254545  0.075139432    2.6222141 
 -0.20623308     3.939095  0.076354267     2.631326 
  -0.1928291    3.9258492  0.077078983    2.6224778 
 -0.19280379     3.925577   0.07921368    2.6222959 
 -0.17772866    3.9109038  0.079271722    2.6124942 
 -0.18281801     3.915472   0.07641039    2.6155458 
  -0.2039258    3.9370979  0.076058644    2.6299919 
 -0.17217598    3.9049255  0.075123363    2.6085006 
 -0.19652857    3.9292848  0.075284448    2.6247727 
 -0.17102984    3.9041085  0.074885508    2.6079549 
 -0.16147649    3.8948696  0.078382779    2.6017833 
 -0.15983537    3.8930266   0.07861409    2.6005521 
 -0.19039939     3.923827  0.077200364    2.6211269 
 -0.18347259    3.9166219  0.075921432    2.6163139 
 -0.16837806    3.9016671  0.080160395     2.606324 
 -0.17412662    3.9072126  0.078209031    2.6100284 
 -0.18909195     3.922322  0.077387101    2.6201216 
 -0.18356033    3.9163143  0.072681478    2.6161084 
 -0.16201966    3.8949557   0.07739923    2.6018408 
 -0.18202614    3.9146007   0.07898467    2.6149638 
 -0.19707953    3.9296457  0.076510442    2.6250139 
 -0.17823202    3.9108474  0.080155115    2.6124565 
 -0.18433245    3.9167496  0.084280347    2.6163992 
 -0.18817887    3.9205897  0.074547304    2.6189644 
 -0.19617804    3.9293137  0.075167089    2.6247921 
Loop time of 2.79166 on 1 procs for 10000 steps with 500 atoms

Performance: 1547467.635 tau/day, 3582.101 timesteps/s
95.7% CPU use with 1 MPI tasks x 1 OpenMP threads

MPI task timing breakdown:
Section |  min time  |  avg time  |  max time  |%varavg| %total
---------------------------------------------------------------
Pair    | 0.55688    | 0.55688    | 0.55688    |   0.0 | 19.95
Neigh   | 0.26423    | 0.26423    | 0.26423    |   0.0 |  9.47
Comm    | 0.075365   | 0.075365   | 0.075365   |   0.0 |  2.70
Output  | 1.584      | 1.584      | 1.584      |  -nan | 56.74
Modify  | 0.27841    | 0.27841    | 0.27841    |   0.0 |  9.97
Other   |            | 0.03276    |            |       |  1.17

Nlocal:    500 ave 500 max 500 min
Histogram: 1 0 0 0 0 0 0 0 0 0
Nghost:    524 ave 524 max 524 min
Histogram: 1 0 0 0 0 0 0 0 0 0
Neighs:    1128 ave 1128 max 1128 min
Histogram: 1 0 0 0 0 0 0 0 0 0

Total # of neighbors = 1128
Ave neighs/atom = 2.256
Neighbor list builds = 1000
Dangerous builds = 1000
Total wall time: 0:00:02
