LAMMPS (12 Dec 2018)
OMP_NUM_THREADS environment is not set. Defaulting to 1 thread. (../comm.cpp:87)
  using 1 OpenMP thread(s) per MPI task
# 3D LENNARD-JONES GAS #

units lj            # Lennard-Jones units
dimension 3
boundary p p p      # Periodic boundaries
atom_style atomic   # Simplest complexity of each particle

lattice fcc 0.01   # Face-centered-cubic shape of lattice, density scale
Lattice spacing in x,y,z = 7.36806 7.36806 7.36806
region simbox block 0 10 0 10 0 10 # Defines region of block
create_box 1 simbox # Creates box with 1 type of atoms
Created orthogonal box = (0 0 0) to (73.6806 73.6806 73.6806)
  1 by 1 by 1 MPI processor grid
create_atoms 1 box  # Fills box with atoms
Created 4000 atoms
  Time spent = 0 secs

mass 1 1.0          # Atoms of type 1 with in Lennard-Jones units
velocity all create 2.5 87287 dist uniform
# Velocity -> temperature 2.5 and seed

pair_style lj/cut 3.0 # Interaction is zero if distance is >3.0 lj
pair_coeff 1 1 1.0 1.0 3.0 # Interaction of atoms type 1 with type 1
# with 1.0 times simga, 1.0 times epsilon value and cutoff 3.0

compute KE all ke
compute PE all pe
compute TEMP all temp
compute PRESS all pressure thermo_temp

fix 1 all nve       # Constant number (n) of type 1 atoms
                    # Constant volume of simbox
                    # Constant energy

# Simulation control:
timestep 0.00125
thermo_style custom pe ke press temp
fix 2 all ave/time 1 1 1 c_KE c_PE c_PRESS c_TEMP file smallesttimestep.txt
dump 1 all custom 10 dump.smallesttimestep id type x y z vx vy vz
thermo 100          # Log every 100 steps
run 80000            # Timesteps
Neighbor list info ...
  update every 1 steps, delay 10 steps, check yes
  max neighbors/atom: 2000, page size: 100000
  master list distance cutoff = 3.3
  ghost atom cutoff = 3.3
  binsize = 1.65, bins = 45 45 45
  1 neighbor lists, perpetual/occasional/extra = 1 0 0
  (1) pair lj/cut, perpetual
      attributes: half, newton on
      pair build: half/bin/atomonly/newton
      stencil: half/bin/3d/newton
      bin: standard
Per MPI rank memory allocation (min/avg/max) = 5.075 | 5.075 | 5.075 Mbytes
PotEng KinEng Press Temp 
           0    3.7490625   0.02499375          2.5 
           0    3.7490625   0.02499375          2.5 
           0    3.7490625   0.02499375          2.5 
-5.1222715e-05    3.7490767  0.024992822    2.5000095 
-0.0010269946    3.7496703  0.024977425    2.5004053 
-0.0035598972    3.7516782  0.025072605    2.5017442 
-0.012309083    3.7599274  0.025410526    2.5072451 
-0.020070092    3.7673577  0.025835325    2.5121999 
-0.038791728    3.7857788  0.025396477    2.5244837 
-0.038366951    3.7851471   0.02559516    2.5240624 
-0.041882229    3.7885127  0.025199951    2.5263067 
  -0.0425706    3.7891407  0.025379765    2.5267255 
-0.050266292    3.7967445  0.025198185     2.531796 
-0.052439589    3.7989059  0.025236639    2.5332372 
-0.052454341    3.7987896  0.025242306    2.5331597 
-0.044805691    3.7910977  0.025542577    2.5280305 
-0.043635943    3.7899143  0.025567625    2.5272413 
-0.047622936    3.7938669  0.025325502    2.5298771 
-0.045131483    3.7913531  0.025594778    2.5282008 
-0.049686018    3.7959121  0.025314871    2.5312409 
-0.047230276    3.7933729  0.025328238    2.5295477 
-0.051149891    3.7972923  0.024964147    2.5321612 
-0.048373698    3.7944823  0.025322533    2.5302874 
-0.046606034    3.7927627  0.025549509    2.5291407 
-0.049755497    3.7958745  0.025429791    2.5312158 
  -0.0541074     3.800223  0.025170684    2.5341155 
-0.049846352    3.7959947  0.025312614    2.5312959 
-0.052959908    3.7990962  0.025061106    2.5333641 
-0.050730521    3.7968457  0.025389494    2.5318635 
-0.053681148    3.7997831  0.025287546    2.5338222 
-0.058373432    3.8044636  0.024967223    2.5369433 
-0.055790379    3.8017976  0.025342958    2.5351655 
-0.058389396    3.8043648   0.02546021    2.5368774 
-0.060941493    3.8069203  0.025349528    2.5385815 
-0.059933677    3.8059293  0.025265124    2.5379207 
-0.055170338    3.8011824  0.025572284    2.5347553 
-0.056715589    3.8027561  0.025424866    2.5358047 
-0.059640388    3.8057059  0.025269597    2.5377717 
-0.063114733    3.8091793  0.025185651    2.5400879 
-0.062070869    3.8081467  0.025398503    2.5393993 
-0.059643565    3.8056722  0.025233855    2.5377493 
-0.058710666      3.80472  0.024998187    2.5371143 
-0.052784802    3.7987861  0.025259584    2.5331574 
 -0.05499167    3.8009705  0.025206309     2.534614 
-0.055540735    3.8014819  0.025296686     2.534955 
-0.060146609    3.8060975  0.025148109    2.5380328 
 -0.05526425    3.8011982  0.025442813    2.5347658 
-0.054449204    3.8002989  0.025403391    2.5341661 
-0.050230177    3.7960976  0.025520337    2.5313646 
-0.050527602    3.7964334  0.025591132    2.5315885 
-0.055047136    3.8009769  0.025283579    2.5346183 
-0.056291444    3.8022412  0.025180257    2.5354613 
-0.050695814    3.7966347  0.025473988    2.5317227 
 -0.05340249    3.7993879   0.02542204    2.5335587 
-0.057550143    3.8035481  0.025174882    2.5363328 
-0.054058958    3.8000689  0.025452605    2.5340128 
-0.059083547    3.8050539  0.025342497    2.5373369 
-0.061650382    3.8076054   0.02532551    2.5390384 
-0.060263745    3.8062427  0.025243537    2.5381296 
-0.053563389    3.7996105  0.025548316    2.5337071 
-0.055134512    3.8012017  0.025171421    2.5347682 
-0.048748158    3.7948278  0.025418651    2.5305178 
-0.055302651    3.8013498  0.025099392    2.5348669 
-0.052238348     3.798252  0.025363517    2.5328012 
-0.049409405    3.7954305  0.025435072    2.5309197 
-0.055116843    3.8011288  0.025243952    2.5347195 
-0.054060288    3.8000883  0.025524687    2.5340257 
-0.059308473    3.8053614  0.025153181     2.537542 
-0.058714988    3.8047464  0.025126955    2.5371319 
-0.057679726    3.8037105  0.025293362    2.5364411 
-0.057971652    3.8039435  0.025430418    2.5365965 
-0.061777919    3.8077389  0.025207554    2.5391274 
-0.058684719    3.8046757  0.025347045    2.5370848 
-0.058151146    3.8040756  0.025334341    2.5366846 
-0.061641621    3.8075601   0.02519903    2.5390082 
-0.060172197    3.8060639  0.025174495    2.5380104 
 -0.06359833    3.8094698  0.025037203    2.5402816 
-0.062976151    3.8088319  0.024958879    2.5398563 
-0.055060295    3.8009495  0.025502482       2.5346 
-0.054744793    3.8006332  0.025604831    2.5343891 
-0.056328888    3.8022496  0.025358601    2.5354669 
-0.056766007    3.8026869  0.025263715    2.5357586 
-0.056475451    3.8024061  0.025186899    2.5355713 
-0.053758781    3.7997448  0.025128432    2.5337966 
 -0.05450384    3.8004874   0.02512708    2.5342918 
-0.050949622    3.7968961  0.025572772    2.5318971 
-0.054862599    3.8008507  0.025261618    2.5345341 
-0.056678762    3.8026872  0.025091275    2.5357587 
-0.050700669    3.7967441  0.025518641    2.5317957 
-0.055095575    3.8011614  0.025229911    2.5347413 
 -0.05350814    3.7995264  0.025359119     2.533651 
-0.050746357    3.7967536   0.02546288     2.531802 
-0.056361672    3.8023747  0.025002487    2.5355504 
-0.050818727    3.7968602  0.025320505    2.5318731 
-0.056077097    3.8021061  0.025210535    2.5353713 
-0.058493673    3.8044995  0.025256965    2.5369672 
-0.057349795      3.80336   0.02523837    2.5362074 
  -0.0570132    3.8030021  0.025266457    2.5359688 
-0.058876683    3.8049014  0.025227088    2.5372352 
-0.054660058    3.8007146  0.025345997    2.5344433 
-0.054926398    3.8009661  0.025368114     2.534611 
-0.056254493    3.8022624  0.025439821    2.5354755 
-0.060094878     3.806159  0.025161218    2.5380739 
-0.055565467    3.8016269  0.025235789    2.5350517 
-0.053536398     3.799597   0.02532743    2.5336981 
-0.055029131    3.8010945  0.025111962    2.5346967 
-0.051099999    3.7971319  0.025219669    2.5320543 
-0.051068417    3.7971093  0.025292682    2.5320392 
-0.053562348    3.7995566  0.025147992    2.5336711 
-0.053300199    3.7993341   0.02518366    2.5335228 
-0.053991786    3.8000308  0.025181087    2.5339874 
-0.058450996    3.8044621  0.025136979    2.5369423 
-0.060910803    3.8068971  0.025116021     2.538566 
-0.056871391    3.8028421  0.025390821     2.535862 
-0.058547873    3.8044953  0.025251495    2.5369644 
-0.058594241    3.8045372  0.025214267    2.5369924 
-0.059325856     3.805226  0.025163456    2.5374517 
-0.055842904     3.801782  0.025498328    2.5351551 
-0.054138734    3.8001037  0.025518377     2.534036 
-0.055526827    3.8015639  0.025227294    2.5350097 
-0.055842621     3.801869  0.025294842    2.5352131 
 -0.05505494    3.8010439  0.025411372    2.5346629 
-0.055268866    3.8012717  0.025182452    2.5348149 
-0.053158479    3.7991722  0.025217791    2.5334148 
 -0.05408574     3.800124  0.025395076    2.5340495 
-0.061355075    3.8073738  0.024949999    2.5388839 
-0.061821332    3.8078702  0.025045053    2.5392149 
-0.059164116    3.8051836   0.02540363    2.5374234 
-0.056332549     3.802331  0.025346688    2.5355212 
 -0.05465996     3.800631  0.025393724    2.5343876 
-0.057891327    3.8038646  0.025106122    2.5365439 
-0.056052275    3.8020663  0.025388749    2.5353447 
-0.058131755    3.8041724  0.025379181    2.5367491 
-0.059552911    3.8056132  0.025270857    2.5377099 
-0.057242862    3.8032801   0.02529465    2.5361541 
-0.054858312     3.800921  0.025389764     2.534581 
-0.058971372    3.8050114   0.02514448    2.5373086 
-0.057693023     3.803758  0.025408456    2.5364728 
-0.060445528    3.8064818   0.02538555    2.5382891 
-0.059104605    3.8051489   0.02521541    2.5374003 
-0.054641559    3.8007055  0.025309944    2.5344373 
-0.053853933    3.7998677  0.025243473    2.5338786 
-0.050186925    3.7961699  0.025578824    2.5314128 
-0.059638287    3.8056201  0.025062191    2.5377145 
 -0.05607598    3.8020394  0.025357043    2.5353268 
-0.061643338    3.8076052  0.025039562    2.5390382 
-0.058903735    3.8048292  0.025132197    2.5371871 
-0.054780428    3.8007658  0.025318795    2.5344775 
-0.057658546    3.8036495  0.025114961    2.5364004 
-0.057114791    3.8030835  0.025221681     2.536023 
-0.053460941    3.7994127  0.025375146    2.5335752 
-0.057949471     3.803914   0.02516871    2.5365768 
-0.056584783    3.8025753  0.025330201    2.5356842 
-0.053965219    3.7999886  0.025561641    2.5339592 
-0.056231215    3.8022452  0.025276465     2.535464 
  -0.0574394    3.8034376  0.025113366    2.5362591 
-0.057243998    3.8032785  0.025204132     2.536153 
-0.057956704    3.8039918  0.025222436    2.5366287 
-0.059371312    3.8054148  0.025056119    2.5375776 
-0.057902769    3.8039282  0.025341199    2.5365863 
-0.054606603    3.8006734  0.025487752    2.5344159 
-0.056870631    3.8029516  0.025351235    2.5359351 
-0.057526767    3.8035682  0.025409208    2.5363462 
-0.054163979     3.800166  0.025405767    2.5340775 
-0.057262612    3.8032703  0.025118841    2.5361476 
-0.051556241    3.7975501  0.025523169    2.5323331 
-0.055984104    3.8019685  0.025356294    2.5352795 
-0.056249102    3.8022677  0.025185815     2.535479 
-0.056481375    3.8025362  0.025147575     2.535658 
-0.054091848    3.8001692  0.025269765    2.5340797 
-0.057514987     3.803568  0.025258061    2.5363461 
-0.054580556    3.8006473  0.025542342    2.5343985 
 -0.06170078    3.8077317  0.025149055    2.5391226 
-0.059102452    3.8050995  0.025356596    2.5373673 
-0.060946972    3.8068941  0.025050169    2.5385641 
-0.056503437    3.8024268  0.025282712    2.5355851 
-0.060134746    3.8060665   0.02531418    2.5380122 
-0.056600806     3.802517  0.025727992    2.5356453 
-0.059771669    3.8056671  0.025401362    2.5377458 
-0.055285196    3.8012188  0.025442235    2.5347796 
-0.059217842    3.8051135  0.025137426    2.5373766 
-0.055816644    3.8017299  0.025364182    2.5351204 
-0.060075776    3.8059613  0.025291078     2.537942 
-0.061695535    3.8076055  0.025301225    2.5390385 
-0.063674836    3.8095811  0.025125568    2.5403558 
-0.056481324    3.8023507  0.025650385    2.5355344 
-0.060975137     3.806849  0.025259919    2.5385339 
-0.059436203     3.805363  0.025249876     2.537543 
-0.062290028    3.8082345  0.025157901    2.5394579 
-0.058411683    3.8043518  0.025447435    2.5368688 
-0.057595339    3.8035302  0.025272974    2.5363209 
-0.058968906    3.8048776  0.025202245    2.5372194 
-0.057890269    3.8037801  0.025243473    2.5364875 
-0.059904832    3.8058293   0.02519681     2.537854 
-0.060341969    3.8063122   0.02530742     2.538176 
-0.062695578    3.8086429  0.025082772    2.5397302 
-0.057526001    3.8035166   0.02521345    2.5363118 
-0.049569887    3.7955806  0.025525019    2.5310198 
 -0.05801987    3.8040924  0.025065185    2.5366958 
-0.059963041    3.8060297  0.025158941    2.5379876 
-0.054107973    3.8001203  0.025477984    2.5340471 
-0.050672648    3.7966858  0.025480532    2.5317568 
-0.053598828     3.799626  0.025489488    2.5337174 
-0.055202921    3.8012244  0.025640964    2.5347833 
-0.060002047    3.8059974  0.025303503    2.5379661 
-0.063032416    3.8089502  0.025026821    2.5399351 
-0.054936474    3.8008873  0.025434349    2.5345585 
-0.060745386    3.8067102   0.02517236    2.5384414 
-0.056742854    3.8026979  0.025506745    2.5357659 
-0.058826082    3.8047671  0.025518427    2.5371457 
-0.060234485    3.8062101  0.025348002     2.538108 
-0.060692815    3.8066343  0.025246272    2.5383908 
-0.057581396     3.803516  0.025473124    2.5363114 
-0.056925865    3.8028706  0.025466822    2.5358811 
 -0.05862451    3.8045575  0.025191029    2.5370059 
-0.054140585     3.800075  0.025410881    2.5340168 
-0.062267452    3.8082147  0.025156083    2.5394446 
-0.065467765    3.8114131  0.025177443    2.5415774 
-0.066743453      3.81273  0.025303146    2.5424556 
-0.063108706    3.8091075  0.025374389      2.54004 
-0.062721333    3.8087291  0.025312456    2.5397877 
-0.062531017    3.8085216  0.025416347    2.5396493 
-0.063191838    3.8092169  0.025241258     2.540113 
-0.060914557    3.8069056  0.025299104    2.5385717 
-0.060346917     3.806292  0.025207062    2.5381625 
-0.058202537    3.8041126   0.02548926    2.5367093 
-0.061644956    3.8075367  0.025289435    2.5389926 
-0.058737368    3.8046011  0.025357919     2.537035 
-0.061985135    3.8078253  0.025112158     2.539185 
-0.059626211     3.805455  0.025244597    2.5376044 
-0.059079288    3.8048863  0.025273391    2.5372252 
-0.054828938    3.8007009  0.025561475    2.5344342 
-0.061756018    3.8077101  0.025385993    2.5391082 
-0.060483128    3.8064521  0.025396493    2.5382693 
-0.061249249    3.8072306  0.025140945    2.5387884 
-0.061468616    3.8074734  0.025188668    2.5389503 
-0.057213753     3.803206  0.025492366    2.5361047 
-0.065886909    3.8119059  0.024995755    2.5419061 
-0.062625335    3.8086332  0.025342387    2.5397237 
-0.060741515    3.8067317  0.025510115    2.5384557 
-0.062839107    3.8088942  0.025251859    2.5398978 
-0.056574532     3.802615  0.025276047    2.5357106 
-0.055756834      3.80178  0.025141075    2.5351538 
-0.056571936    3.8026414  0.025046842    2.5357282 
-0.054918755    3.8010233  0.025260262    2.5346492 
-0.055150392    3.8012209  0.025378217     2.534781 
-0.057764626    3.8038051   0.02514882    2.5365042 
-0.053872114    3.7999026   0.02524466    2.5339019 
-0.053919744    3.7999112   0.02515673    2.5339076 
 -0.05234465    3.7983337  0.025563115    2.5328557 
-0.060193381    3.8062092  0.025156628    2.5381073 
-0.052706749    3.7986684  0.025558727    2.5330789 
-0.059566599    3.8055482  0.024984792    2.5376665 
-0.061777828    3.8078093  0.025070631    2.5391744 
-0.059655969    3.8056707  0.025478927    2.5377482 
-0.062931221    3.8089181  0.025168515    2.5399137 
-0.062820474    3.8087771  0.025177684    2.5398197 
-0.069588388    3.8154801  0.024990049    2.5442895 
-0.058767311    3.8046487  0.025682216    2.5370668 
-0.065102047    3.8109789  0.025115742    2.5412879 
-0.062036445    3.8078874  0.025230691    2.5392264 
 -0.06041052    3.8062377  0.025356411    2.5381263 
-0.060065586    3.8058684  0.025449547      2.53788 
-0.063936412    3.8097366   0.02518598    2.5404595 
-0.063439261    3.8092663  0.025225814    2.5401459 
-0.063266638    3.8090961  0.025272699    2.5400324 
-0.061913633    3.8077794  0.025278851    2.5391544 
 -0.06348546    3.8093538  0.025170074    2.5402042 
-0.063681455    3.8095436  0.025238575    2.5403308 
-0.060956835    3.8068712   0.02551643    2.5385488 
-0.063380072    3.8092716  0.025311073    2.5401494 
 -0.06424185     3.810126  0.025147495    2.5407192 
-0.062980803    3.8088348   0.02526897    2.5398582 
-0.067018045    3.8128747  0.025138887    2.5425521 
-0.065900069    3.8117378  0.025230553     2.541794 
-0.065514789    3.8113893  0.025255424    2.5415616 
-0.064566844    3.8104495  0.025130157    2.5409349 
-0.062381862    3.8083045  0.025383515    2.5395046 
-0.061980052     3.807878  0.025347151    2.5392201 
 -0.05740914    3.8032521  0.025478427    2.5361354 
-0.060914534    3.8067931  0.025390955    2.5384967 
-0.062760478    3.8087077  0.025309089    2.5397734 
-0.059210735    3.8051641  0.025497674    2.5374104 
-0.058050638    3.8040261  0.025379667    2.5366515 
-0.060388208    3.8063789  0.025125381    2.5382205 
-0.060685102    3.8066683  0.025182011    2.5384134 
-0.061224265      3.80723  0.025206326     2.538788 
-0.059520648    3.8054645  0.025169534    2.5376107 
-0.058451987    3.8044048  0.025276461    2.5369041 
-0.061804363    3.8077165  0.025174538    2.5391124 
-0.058998084    3.8049227  0.025429296    2.5372494 
-0.060591954    3.8065452  0.025200485    2.5383314 
-0.062804858    3.8087252  0.025184792    2.5397851 
-0.062587134    3.8085569  0.025466819    2.5396728 
-0.062824035     3.808802  0.025562742    2.5398363 
-0.062187618    3.8081776  0.025290976    2.5394199 
-0.060679068    3.8067187  0.025149477    2.5384471 
-0.059720171    3.8057184  0.025195262      2.53778 
 -0.05648496    3.8024929  0.025412398    2.5356292 
-0.061153148    3.8071789  0.025190415    2.5387539 
-0.064528849    3.8105669  0.025092225    2.5410132 
-0.061605161    3.8076403  0.025326419    2.5390616 
-0.062258554    3.8082505  0.025324126    2.5394685 
-0.059244169    3.8052638  0.025537873    2.5374769 
-0.058161328    3.8041288  0.025409563    2.5367201 
-0.057301837    3.8032501   0.02514425    2.5361341 
-0.057547666    3.8035326  0.025257746    2.5363225 
-0.058456257     3.804466  0.025249361    2.5369449 
-0.057809515    3.8038007  0.025225131    2.5365012 
-0.059234248      3.80524  0.025059084     2.537461 
-0.055758031    3.8018038  0.025387676    2.5351697 
-0.058978832    3.8050598  0.025160104    2.5373409 
-0.060130487     3.806204  0.025077348    2.5381038 
 -0.05507566    3.8011643  0.025536145    2.5347432 
 -0.05930896    3.8053528  0.025198771    2.5375363 
-0.055878493    3.8019123  0.025269837     2.535242 
-0.059621365    3.8056078  0.025139501    2.5377063 
-0.056923366    3.8029529  0.025342563    2.5359359 
-0.056782628    3.8027683  0.025226971    2.5358128 
 -0.05507455    3.8010705   0.02505757    2.5346807 
-0.053921086    3.7998697  0.025056991      2.53388 
-0.055006153    3.8009285   0.02522058     2.534586 
-0.058079474     3.804018  0.025301168    2.5366462 
-0.059752548    3.8056994  0.025268297    2.5377674 
-0.060755978    3.8066833  0.025253381    2.5384235 
-0.063731115    3.8096232  0.024947374    2.5403839 
-0.059108649    3.8050217  0.025315896    2.5373155 
 -0.06126198    3.8071734  0.025284658    2.5387503 
-0.059982823    3.8058545  0.025321571    2.5378708 
-0.062232912    3.8080817  0.025334204     2.539356 
 -0.06490489    3.8107997  0.025258462    2.5411684 
-0.063446991     3.809355  0.025392182     2.540205 
-0.059871006    3.8058059   0.02547158    2.5378384 
-0.061842297    3.8077626   0.02510246    2.5391432 
-0.060233738    3.8060972    0.0250876    2.5380327 
-0.058858543    3.8047448   0.02520929    2.5371308 
-0.056031161    3.8019588   0.02549831     2.535273 
 -0.06291665    3.8088127  0.025089714    2.5398435 
-0.060840177     3.806784  0.025267102    2.5384906 
  -0.0659401    3.8118801  0.025057571    2.5418889 
-0.063130429    3.8090197  0.025315966    2.5399815 
-0.064477643    3.8104022  0.025329787    2.5409033 
-0.064454742    3.8103023  0.025271564    2.5408367 
-0.061639583    3.8074848  0.025326477    2.5389579 
-0.056411907    3.8022615    0.0253927    2.5354749 
-0.057425409    3.8033162  0.025410942    2.5361782 
-0.058982406    3.8048906  0.025377588     2.537228 
-0.058675144    3.8045924  0.025156026    2.5370292 
-0.058222484    3.8041275  0.025179848    2.5367192 
-0.059112837    3.8049996  0.025073226    2.5373007 
-0.052663964    3.7985748  0.025391842    2.5330164 
-0.054469748     3.800416  0.025280632    2.5342443 
-0.056366145    3.8022748  0.025187039    2.5354837 
-0.057356991    3.8033118  0.025165757    2.5361752 
-0.053151796    3.7991447  0.025526483    2.5333965 
-0.058225232    3.8041612  0.025450455    2.5367417 
-0.059972227    3.8059755  0.025415872    2.5379515 
-0.057489963    3.8034928  0.025501672     2.536296 
-0.054355115    3.8003205  0.025345103    2.5341805 
-0.060535513    3.8064561  0.024833194     2.538272 
-0.057270086    3.8031883  0.025288353    2.5360929 
-0.060365951    3.8062739  0.025387222    2.5381505 
-0.059547054    3.8054194  0.025384857    2.5375807 
-0.059728708     3.805581  0.025230632    2.5376884 
-0.061487039    3.8073958  0.025232285    2.5388986 
-0.060230743    3.8061524  0.025281497    2.5380695 
-0.054461884    3.8003468  0.025704537    2.5341981 
-0.058979121    3.8048486  0.025488356    2.5372001 
-0.061494733    3.8073975  0.025518348    2.5388997 
-0.065638489    3.8115653   0.02515862    2.5416789 
-0.059940618    3.8058734  0.025212096    2.5378834 
-0.056547807     3.802541  0.025129988    2.5356612 
-0.057873341    3.8039266   0.02504821    2.5365852 
-0.054539215    3.8005966  0.025417691    2.5343647 
-0.057717318    3.8037785  0.025236392    2.5364864 
 -0.06113244    3.8071982  0.025116503    2.5387668 
-0.057836866    3.8038784  0.025488627    2.5365531 
 -0.05741144     3.803438  0.025350726    2.5362594 
 -0.05752588    3.8035656  0.025185691    2.5363445 
-0.058802322     3.804795   0.02500443    2.5371643 
-0.054165725    3.8001556  0.025197778    2.5340706 
-0.053919324     3.799953  0.025344717    2.5339355 
-0.054941851    3.8008673  0.025532646    2.5345451 
-0.058934401    3.8048549  0.025280894    2.5372042 
-0.062997074    3.8089579  0.025127322    2.5399402 
-0.063021367    3.8090033   0.02534794    2.5399705 
-0.060525757    3.8064849  0.025289762    2.5382912 
-0.059474282    3.8054493   0.02516132    2.5376006 
-0.054778519    3.8007397  0.025442167    2.5344601 
-0.059815302    3.8057602  0.025094298    2.5378079 
 -0.05760851    3.8035581  0.025274011    2.5363395 
-0.060582227     3.806603  0.025190281    2.5383699 
-0.058267008    3.8042925  0.025386772    2.5368292 
-0.061444917    3.8074341  0.025353288    2.5389241 
-0.064821382    3.8107538  0.025046343    2.5411378 
-0.061265659    3.8071731  0.025378738    2.5387501 
-0.061706189    3.8076766  0.025306898    2.5390858 
-0.064154416    3.8100992  0.025037554    2.5407013 
-0.062511327    3.8084694  0.024951967    2.5396145 
-0.059060845    3.8049969  0.025259898    2.5372989 
-0.060747798    3.8066946   0.02536965     2.538431 
-0.061437665     3.807394  0.025197333    2.5388974 
-0.061930691    3.8079228  0.024988562      2.53925 
-0.057719309    3.8037034  0.025319229    2.5364364 
-0.056137184    3.8021109   0.02550379    2.5353744 
-0.061601389    3.8075884  0.025123405     2.539027 
-0.065066143    3.8110311  0.025070502    2.5413227 
-0.063442463    3.8094077  0.025280304    2.5402402 
-0.065594026    3.8115329  0.025266602    2.5416573 
-0.063033262    3.8090019  0.025164305    2.5399696 
-0.062569789    3.8085064  0.025226502    2.5396392 
-0.065020288    3.8109421  0.025175593    2.5412634 
-0.064051614    3.8099718  0.025188942    2.5406164 
-0.062290039     3.808207  0.025212282    2.5394395 
-0.056188524    3.8020726  0.025427737    2.5353489 
-0.054520231    3.8003772  0.025455847    2.5342184 
 -0.05569613    3.8016206  0.025209624    2.5350475 
-0.055575591    3.8015472  0.025089372    2.5349986 
-0.052486749    3.7984603  0.025195667    2.5329401 
-0.058010379    3.8039546  0.025075348    2.5366039 
-0.059689556     3.805666  0.025217059    2.5377451 
-0.060897461     3.806879  0.025126867    2.5385539 
-0.055998239    3.8019529  0.025311429    2.5352691 
-0.060424388    3.8063552  0.025139759    2.5382047 
-0.055601446    3.8015203  0.025447445    2.5349806 
-0.057960317    3.8038683  0.025356061    2.5365463 
-0.057535503    3.8034109  0.025305243    2.5362414 
-0.060398967    3.8063101  0.025219151    2.5381746 
  -0.0561664     3.802117  0.025491779    2.5353785 
-0.061214629    3.8071491  0.025322321    2.5387341 
-0.055851899    3.8017556  0.025708681    2.5351375 
-0.060186473    3.8060969  0.025323546    2.5380324 
-0.056113894     3.802033    0.0255117    2.5353225 
 -0.06070469    3.8065654   0.02514264    2.5383448 
-0.054977767    3.8008238  0.025583927    2.5345162 
-0.056310284    3.8021623   0.02577071    2.5354087 
-0.062580611    3.8084243  0.025265619    2.5395844 
-0.063001477    3.8088314  0.025154721    2.5398559 
-0.059889172    3.8057749  0.025333046    2.5378177 
-0.056268198      3.80213  0.025480686    2.5353872 
 -0.05576713    3.8016552  0.025467639    2.5350705 
-0.056081064    3.8019725    0.0254014    2.5352821 
-0.057234324    3.8030993  0.025254224    2.5360336 
-0.057330821    3.8031893  0.025262706    2.5360935 
-0.055487856    3.8013642  0.025403374    2.5348765 
-0.061133883    3.8069993  0.025228171    2.5386342 
-0.058449643    3.8043381  0.025481691    2.5368596 
-0.061313168    3.8071664  0.025435229    2.5387456 
-0.062042764    3.8079091  0.025165151    2.5392409 
-0.061310952    3.8071828  0.025261268    2.5387565 
-0.059513359    3.8054455  0.025317029     2.537598 
-0.062189697    3.8081114  0.025090525    2.5393758 
-0.059520713    3.8054872  0.025231197    2.5376259 
-0.061528219    3.8075313  0.025156283     2.538989 
-0.059728596    3.8057093  0.025255006     2.537774 
-0.061940141    3.8079066  0.025183755    2.5392392 
-0.061971981     3.807983  0.025162666    2.5392901 
 -0.06083198    3.8068146  0.025121222     2.538511 
-0.055932396    3.8019702   0.02541035    2.5352806 
-0.060451818    3.8064812  0.025154098    2.5382887 
-0.053909662    3.7999696  0.025467678    2.5339466 
 -0.05648469    3.8025073  0.025282839    2.5356388 
-0.056820835    3.8028337  0.025270192    2.5358565 
-0.056175119    3.8021211  0.025285285    2.5353813 
-0.057356758    3.8032975  0.025350029    2.5361657 
-0.058941006    3.8048606  0.025289808     2.537208 
-0.058172073    3.8040878  0.025250814    2.5366927 
-0.063525568    3.8094208  0.025099175    2.5402489 
-0.062584293    3.8085013  0.025167168    2.5396358 
-0.060539489    3.8064259   0.02536517    2.5382518 
-0.061557882    3.8074248  0.025610083    2.5389179 
-0.063319418    3.8091994   0.02528382    2.5401013 
-0.061448516    3.8073611  0.025198323    2.5388755 
 -0.06244023    3.8083151  0.025276706    2.5395116 
-0.063879775    3.8097524  0.025429378      2.54047 
-0.069470248    3.8153339  0.025297256     2.544192 
-0.062639464    3.8085138  0.025714181    2.5396441 
-0.066806625    3.8126774  0.025215395    2.5424205 
-0.062278968    3.8081673  0.025333884    2.5394131 
-0.065648108    3.8115716  0.025168069    2.5416832 
-0.058271583    3.8042048  0.025593356    2.5367707 
-0.065442645    3.8113346  0.025182606    2.5415251 
 -0.06165917    3.8075446   0.02540653    2.5389978 
-0.063366578    3.8092307  0.025155683    2.5401222 
-0.060130109     3.805963  0.025358566    2.5379431 
-0.064039684    3.8099625  0.025060054    2.5406102 
-0.060211256    3.8061123  0.025291254    2.5380427 
-0.064883193    3.8107348  0.025183919    2.5411251 
-0.062262903    3.8081709   0.02541528    2.5394155 
-0.062805071    3.8087653  0.025291892    2.5398118 
-0.058465607    3.8044571  0.025393011     2.536939 
-0.060455812     3.806448  0.025243956    2.5382666 
 -0.05866563    3.8047051  0.025220495    2.5371043 
-0.053434069    3.7994779  0.025481995    2.5336187 
-0.056617312    3.8026249   0.02522229    2.5357172 
-0.061515583    3.8075596   0.02497936    2.5390078 
  -0.0583405    3.8043589  0.025341108    2.5368735 
-0.060061227    3.8060403  0.025358174    2.5379947 
-0.063884531    3.8098269  0.025037364    2.5405197 
-0.063085251    3.8090281   0.02517982    2.5399871 
-0.061520204    3.8074495   0.02526765    2.5389344 
-0.065621185    3.8115338  0.025001715    2.5416579 
-0.062533734    3.8084575  0.025245423    2.5396066 
-0.063905785    3.8098105  0.025323608    2.5405088 
-0.058444939    3.8044017  0.025547473     2.536902 
-0.062228438    3.8081899  0.025098996    2.5394281 
 -0.05882682    3.8047944  0.025267897    2.5371639 
-0.059312945      3.80528  0.025301373    2.5374877 
-0.060873248    3.8068063  0.025294546    2.5385055 
-0.062825673     3.808732  0.025115486    2.5397896 
-0.060986224      3.80687  0.025217166     2.538548 
-0.062172262    3.8080519  0.025290854    2.5393361 
-0.066288656    3.8121701   0.02533925    2.5420822 
-0.063933533    3.8098056  0.025382391    2.5405055 
-0.064249133    3.8100468  0.025228761    2.5406664 
-0.064795255    3.8106004  0.025171449    2.5410355 
-0.064610262    3.8104154   0.02510631    2.5409122 
-0.061855164    3.8076801  0.025251306    2.5390882 
-0.065456069    3.8112584  0.025025072    2.5414743 
-0.061967405    3.8078566    0.0250935    2.5392059 
-0.058927286    3.8048242  0.025473308    2.5371838 
-0.063753437    3.8096729  0.025312969     2.540417 
-0.061818294    3.8077748  0.025330001    2.5391513 
-0.058137352    3.8041152   0.02514273     2.536711 
-0.053620314    3.7996002  0.025258084    2.5337002 
-0.052971975    3.7989864  0.025362353    2.5332909 
-0.054611484    3.8006318  0.025429356    2.5343881 
-0.059913424    3.8059414  0.025326166    2.5379287 
-0.060803298    3.8068256   0.02526216    2.5385184 
-0.061825325    3.8078523  0.025288132     2.539203 
-0.056971355    3.8030201  0.025444476    2.5359808 
-0.054798367    3.8008355  0.025446705     2.534524 
-0.056503141    3.8025268  0.025278443    2.5356518 
 -0.05564291    3.8016104  0.025444834    2.5350407 
 -0.06170981    3.8076916  0.025326815    2.5390959 
-0.064391672    3.8103411  0.025113447    2.5408626 
-0.064267366     3.810182  0.025137421    2.5407565 
 -0.06422764    3.8101313  0.025207304    2.5407227 
-0.061419679    3.8073036  0.025427609    2.5388371 
-0.061006544    3.8068638  0.025413462    2.5385439 
-0.060178659    3.8060522  0.025219477    2.5380027 
-0.063353797    3.8092275  0.025003904      2.54012 
-0.063249672     3.809143  0.025183141    2.5400637 
-0.061241911    3.8071326  0.025249636    2.5387231 
-0.056740966    3.8026649  0.025496618    2.5357439 
-0.059504954     3.805437  0.025548992    2.5375924 
-0.059879871     3.805845   0.02550117    2.5378644 
-0.060891551    3.8067996  0.025431479     2.538501 
-0.056529142    3.8024532  0.025751046    2.5356027 
-0.063490021    3.8093576  0.025251961    2.5402068 
-0.060386173    3.8062699  0.025398797    2.5381478 
-0.060222664    3.8061018  0.025314766    2.5380357 
-0.056977157    3.8028787  0.025369673    2.5358864 
-0.059697751    3.8055856  0.025414329    2.5376915 
 -0.06302269    3.8089149  0.025240486    2.5399116 
-0.060237299    3.8061883  0.025308811    2.5380934 
-0.062116884    3.8080493  0.025233888    2.5393344 
-0.061688301    3.8075805  0.025332837    2.5390217 
-0.058649185    3.8045517  0.025466898     2.537002 
-0.061812352    3.8077422  0.025210633    2.5391296 
-0.061815416    3.8077389   0.02512911    2.5391274 
-0.061295888    3.8072747  0.025277227    2.5388179 
-0.061676977    3.8076845  0.025075894    2.5390911 
-0.060510852    3.8065004  0.025163461    2.5383015 
-0.061667374    3.8076314  0.025307978    2.5390557 
-0.060514809    3.8065208  0.025438189    2.5383151 
-0.062271784    3.8082759  0.025083731    2.5394855 
-0.058198056    3.8041414  0.025276787    2.5367284 
-0.057831007    3.8037815  0.025343075    2.5364885 
-0.060474113    3.8064133  0.025327439    2.5382434 
-0.058784647     3.804642  0.025374587    2.5370623 
-0.061869069    3.8077709    0.0252153    2.5391487 
-0.060137509    3.8060668   0.02530514    2.5380124 
-0.064110058    3.8100758  0.025170964    2.5406857 
-0.059119534    3.8050741  0.025538705    2.5373504 
-0.059779213     3.805763  0.025311256    2.5378098 
-0.063926861    3.8099231  0.025008214    2.5405839 
-0.061083442    3.8070794  0.025222683    2.5386876 
-0.063285238    3.8092883  0.025085764    2.5401606 
-0.062298967    3.8083156  0.025326909     2.539512 
-0.054497412    3.8005309  0.025545987    2.5343208 
-0.057751152    3.8037267  0.025325797    2.5364519 
-0.060963541    3.8069521  0.025282096    2.5386027 
-0.064242818    3.8101738  0.025190499     2.540751 
-0.058742221    3.8046595  0.025382249    2.5370739 
-0.056435177    3.8023398  0.025440259     2.535527 
-0.056927844    3.8028342  0.025399979    2.5358568 
-0.057502392    3.8033961  0.025314938    2.5362315 
-0.058791924    3.8046867  0.025158174    2.5370921 
-0.057702343    3.8035503  0.025264075    2.5363343 
  -0.0552014    3.8010488  0.025569224    2.5346662 
-0.060504804    3.8063364  0.025248232    2.5381921 
-0.062216714     3.808067  0.025142162    2.5393462 
-0.059452478    3.8053596  0.025329631    2.5375408 
-0.063894619    3.8098587  0.025155244     2.540541 
-0.063148647    3.8091432  0.025235359    2.5400638 
-0.060715135    3.8067047  0.025286637    2.5384378 
-0.060811726    3.8067732  0.025372102    2.5384834 
-0.063383584    3.8093697  0.025158717    2.5402148 
 -0.06129699    3.8072611   0.02532483    2.5388087 
-0.065692435    3.8116766  0.025081573    2.5417532 
-0.061916222    3.8078931   0.02528042    2.5392302 
 -0.06579297    3.8117932   0.02515705    2.5418309 
-0.062974392     3.808971  0.025360056     2.539949 
-0.062832855    3.8088306  0.025335159    2.5398554 
-0.065934175    3.8118568  0.025170281    2.5418734 
-0.060848421    3.8067886  0.025488074    2.5384937 
-0.062945602    3.8089253   0.02526333    2.5399185 
-0.058072532    3.8040803  0.025357803    2.5366877 
-0.059414307    3.8053889  0.025274306    2.5375603 
-0.057827411    3.8038522  0.025365693    2.5365356 
-0.060980199    3.8070008  0.025119634    2.5386352 
-0.057177233    3.8031827  0.025354363    2.5360891 
-0.059300927    3.8052717  0.025521302    2.5374821 
-0.066549875    3.8124749  0.025227865    2.5422855 
-0.067849456    3.8137749  0.025341494    2.5431524 
-0.067825944    3.8137592  0.025381277    2.5431419 
-0.068416129    3.8143014  0.025165644    2.5435035 
-0.066202377    3.8120766  0.025205785    2.5420199 
-0.062401421     3.808349  0.025225845    2.5395342 
-0.062670761    3.8085938  0.025209027    2.5396975 
-0.058579257    3.8044935  0.025554642    2.5369632 
-0.060080124    3.8060449    0.0251347    2.5379978 
-0.062050751     3.808005  0.025085753    2.5393048 
-0.062962757    3.8089533  0.025170225    2.5399372 
-0.061714885    3.8076833  0.025174136    2.5390903 
 -0.06066043    3.8066161  0.025282475    2.5383787 
 -0.05699533    3.8029457  0.025422904    2.5359311 
 -0.06019477    3.8061408  0.025068313    2.5380617 
-0.058667054     3.804551  0.025436692    2.5370016 
-0.060050338    3.8059451  0.025542595    2.5379312 
-0.064669649    3.8105523  0.025047228    2.5410035 
-0.063316583     3.809183  0.025270374    2.5400903 
-0.062318093    3.8081471  0.025372843    2.5393996 
-0.063416239    3.8092705   0.02532154    2.5401487 
-0.065092532    3.8109535  0.025100894     2.541271 
-0.062917529    3.8087978  0.025104895    2.5398335 
-0.059993762    3.8058841  0.025298198    2.5378906 
-0.061175546    3.8070597   0.02518568    2.5386744 
-0.060765485    3.8066398  0.025240282    2.5383945 
-0.061013768    3.8068894  0.025232558    2.5385609 
-0.059846008    3.8057205  0.025242198    2.5377815 
 -0.05656854    3.8024529  0.025528306    2.5356025 
 -0.05806145    3.8039583  0.025494692    2.5366063 
-0.056857597    3.8027812  0.025474495    2.5358214 
-0.058631109    3.8045539  0.025284358    2.5370035 
-0.058089475    3.8040198  0.025351523    2.5366474 
 -0.05962906    3.8055742  0.025131517    2.5376839 
-0.061202926    3.8071137   0.02504609    2.5387105 
-0.063791818    3.8096954   0.02504083     2.540432 
 -0.05860662    3.8045281   0.02539045    2.5369863 
 -0.05644634    3.8024088  0.025331738    2.5355731 
-0.060275818    3.8062243  0.025130791    2.5381174 
-0.056138888    3.8021235  0.025388253    2.5353828 
-0.054598859    3.8005503   0.02537002    2.5343338 
-0.059023853    3.8049998  0.025209095    2.5373008 
-0.061753764    3.8077772  0.025088916    2.5391529 
-0.055827431    3.8018257  0.025517269    2.5351843 
-0.061727614    3.8077051  0.025129254    2.5391049 
-0.060998717    3.8070158  0.025216809    2.5386452 
 -0.05919431    3.8051658  0.025195536    2.5374116 
-0.056630948    3.8025613  0.025312955    2.5356748 
-0.056922762    3.8027885  0.025262017    2.5358263 
-0.062470006    3.8083614  0.025021367    2.5395425 
-0.062155391      3.80809  0.025378276    2.5393615 
-0.056744013    3.8026487  0.025649354    2.5357331 
-0.060600093    3.8065258   0.02528883    2.5383184 
 -0.05972396    3.8056459  0.025176413    2.5377317 
  -0.0576792     3.803649  0.025278058    2.5364001 
-0.062395882    3.8083892  0.025120279     2.539561 
-0.056801221    3.8028047  0.025338176    2.5358371 
-0.056843895    3.8027894  0.025223438    2.5358269 
-0.061603381    3.8075446  0.025246368    2.5389978 
-0.061958146    3.8079236  0.025189694    2.5392505 
-0.064700726     3.810666   0.02521271    2.5410793 
-0.056522589    3.8024465  0.025719078    2.5355983 
-0.062923954     3.808794  0.025105618    2.5398309 
-0.058252477    3.8041275  0.025430497    2.5367192 
-0.063147101     3.809045  0.025218138    2.5399984 
-0.055822907    3.8017892  0.025700336    2.5351599 
-0.061464187    3.8073368   0.02521929    2.5388592 
-0.056862426    3.8028197  0.025271668    2.5358471 
-0.057804182    3.8037498  0.025164523    2.5364673 
-0.055523682    3.8014932  0.025326377    2.5349625 
-0.058710675    3.8047085  0.025192676    2.5371066 
-0.058896735    3.8049157  0.025195876    2.5372448 
-0.058104463    3.8040808  0.025217704     2.536688 
-0.060447146    3.8063762  0.025162731    2.5382187 
-0.050574074     3.796484  0.025735424    2.5316223 
-0.057913195    3.8038312  0.025294812    2.5365216 
-0.056580147    3.8025182  0.025401533    2.5356461 
-0.062620007    3.8085648  0.025047872    2.5396781 
-0.056898928    3.8028062  0.025374297    2.5358381 
-0.058881326    3.8048334  0.025199463    2.5371899 
-0.059630594    3.8055888  0.025108226    2.5376936 
 -0.05776954    3.8037417  0.025331469    2.5364619 
-0.053691332     3.799636  0.025732992    2.5337241 
-0.060919457    3.8068534  0.025301718    2.5385369 
-0.060478622    3.8063928  0.025255973    2.5382298 
-0.061772462      3.80768  0.025283412    2.5390881 
-0.062024049    3.8079407  0.025325764     2.539262 
-0.062477056    3.8084162  0.025222912     2.539579 
 -0.06249146     3.808403  0.025183815    2.5395703 
-0.056652975    3.8025205  0.025593363    2.5356476 
-0.061596211    3.8075074  0.025161233     2.538973 
-0.054058173    3.7999729  0.025417617    2.5339488 
-0.058061223    3.8039796  0.025246281    2.5366206 
-0.061082003    3.8070085  0.025183706    2.5386403 
-0.057285532    3.8032557  0.025346819    2.5361378 
-0.054731405    3.8007242  0.025463095    2.5344497 
-0.057456042    3.8034283  0.025171625    2.5362529 
-0.053604762    3.7995041  0.025451093    2.5336361 
-0.059097977    3.8050186  0.025220159    2.5373134 
-0.054194797    3.8000579  0.025424907    2.5340055 
-0.057758493    3.8036352  0.025265155    2.5363909 
-0.060445075    3.8062949  0.025148507    2.5381645 
-0.049123443    3.7950124   0.02571466    2.5306409 
-0.055818305     3.801735  0.025371053    2.5351238 
-0.061545583    3.8074688  0.025274979    2.5389472 
-0.056044465    3.8019177  0.025591537    2.5352456 
-0.054889668    3.8007755  0.025420362     2.534484 
   -0.055974    3.8018726  0.025282948    2.5352155 
-0.057761672    3.8036758  0.025302619     2.536418 
-0.054805908    3.8007529  0.025549985    2.5344689 
-0.060997434    3.8069279  0.025269613    2.5385866 
-0.058438728    3.8043422  0.025326843    2.5368623 
-0.058113587    3.8040444  0.025193519    2.5366637 
-0.060894271    3.8068627  0.025030885    2.5385431 
-0.057683075    3.8036293  0.025377437     2.536387 
-0.057959686    3.8039173  0.025395757     2.536579 
-0.052971856    3.7989737  0.025404406    2.5332824 
-0.057104466    3.8031009  0.025113395    2.5360346 
-0.057963217    3.8039894  0.025223429    2.5366271 
-0.050562688    3.7965784  0.025637187    2.5316852 
-0.055890795     3.801905  0.025440943    2.5352372 
-0.062288996    3.8082846  0.024988956    2.5394913 
-0.057705973    3.8037033  0.025271313    2.5364363 
 -0.05458299    3.8006071  0.025342582    2.5343717 
-0.054969661    3.8009347  0.025304805    2.5345901 
-0.055605628    3.8015871  0.025214936    2.5350252 
-0.055159475     3.801158  0.025299796     2.534739 
-0.058272904    3.8043137  0.025276194    2.5368433 
-0.058137255      3.80414  0.025301138    2.5367275 
-0.058157716    3.8041401  0.025212785    2.5367276 
-0.056602314      3.80257   0.02527174    2.5356806 
-0.058944966    3.8049342  0.025237138    2.5372571 
-0.057721757    3.8037004  0.025350991    2.5364344 
-0.056294888    3.8022705  0.025370121    2.5354808 
-0.056353242    3.8023197  0.025368692    2.5355137 
-0.057295701    3.8032307  0.025261909    2.5361212 
-0.061610318    3.8075717  0.025113177    2.5390159 
 -0.06292793    3.8088752  0.025310547    2.5398851 
-0.062728629    3.8086399  0.025406542    2.5397282 
-0.056294183    3.8022168   0.02546608    2.5354451 
-0.056915814    3.8028336   0.02514835    2.5358564 
 -0.05495386    3.8008872  0.025501739    2.5345584 
-0.052623034    3.7985972  0.025729783    2.5330314 
 -0.06461714    3.8105774  0.025001388    2.5410202 
-0.058818132    3.8047384  0.025397882    2.5371266 
-0.060738018    3.8066962  0.025271765    2.5384321 
-0.062478431    3.8084388  0.025229566    2.5395941 
-0.061112365    3.8070498  0.025285444    2.5386679 
-0.057959939    3.8038877  0.025437592    2.5365593 
-0.060528892    3.8064799  0.025108301    2.5382878 
-0.059273577    3.8052269  0.025294638    2.5374523 
 -0.05696038    3.8029191  0.025701648    2.5359134 
   -0.062135    3.8081346  0.025561602    2.5393913 
-0.059030322    3.8049756  0.025671686    2.5372847 
-0.063136887    3.8090689  0.025147076    2.5400142 
-0.062614733    3.8085344  0.025179596    2.5396578 
 -0.06157911    3.8074763  0.025284916    2.5389523 
-0.062565278    3.8084471  0.025141359    2.5395997 
-0.059441724    3.8053455  0.025360202    2.5375314 
-0.059331678    3.8052618  0.025259399    2.5374756 
-0.057510735    3.8034521  0.025334395    2.5362688 
-0.056853573    3.8028033  0.025489229    2.5358361 
-0.064466846    3.8104332  0.025207968     2.540924 
-0.062885927    3.8088659  0.025243965    2.5398789 
-0.056712455    3.8026611  0.025560835    2.5357414 
-0.060533945    3.8064015  0.025084124    2.5382356 
-0.053339279    3.7991894  0.025354052    2.5334263 
-0.059658822    3.8055319  0.025145833    2.5376557 
-0.056110895    3.8019268  0.025422941    2.5352517 
-0.061534898     3.807353  0.025275745    2.5388701 
-0.057938487    3.8037972    0.0254924     2.536499 
-0.061237593    3.8071052  0.025217171    2.5387048 
-0.060799848    3.8066757  0.025289525    2.5384184 
-0.062872366    3.8087584  0.025097532    2.5398072 
-0.060632177    3.8065182  0.025146671    2.5383134 
-0.056594851     3.802472   0.02547314    2.5356153 
-0.057681351     3.803623  0.025360055    2.5363828 
-0.052966656    3.7989179  0.025509558    2.5332452 
-0.058315799    3.8042483  0.025362961    2.5367998 
 -0.06108753    3.8069887  0.025340474    2.5386271 
-0.059445628    3.8053598  0.025382682    2.5375409 
-0.058695081    3.8045908  0.025319903    2.5370281 
-0.059289132    3.8051286  0.025257197    2.5373868 
-0.058041566    3.8039031  0.025511238    2.5365696 
-0.060837976    3.8067009  0.025469071    2.5384352 
-0.059012199    3.8049243   0.02546975    2.5372505 
-0.060022627    3.8059911  0.025188357    2.5379619 
Loop time of 97.4628 on 1 procs for 80000 steps with 4000 atoms

Performance: 88649.184 tau/day, 820.826 timesteps/s
95.7% CPU use with 1 MPI tasks x 1 OpenMP threads

MPI task timing breakdown:
Section |  min time  |  avg time  |  max time  |%varavg| %total
---------------------------------------------------------------
Pair    | 7.8021     | 7.8021     | 7.8021     |   0.0 |  8.01
Neigh   | 3.8076     | 3.8076     | 3.8076     |   0.0 |  3.91
Comm    | 0.64511    | 0.64511    | 0.64511    |   0.0 |  0.66
Output  | 79.166     | 79.166     | 79.166     |   0.0 | 81.23
Modify  | 5.5265     | 5.5265     | 5.5265     |   0.0 |  5.67
Other   |            | 0.5157     |            |       |  0.53

Nlocal:    4000 ave 4000 max 4000 min
Histogram: 1 0 0 0 0 0 0 0 0 0
Nghost:    1161 ave 1161 max 1161 min
Histogram: 1 0 0 0 0 0 0 0 0 0
Neighs:    3034 ave 3034 max 3034 min
Histogram: 1 0 0 0 0 0 0 0 0 0

Total # of neighbors = 3034
Ave neighs/atom = 0.7585
Neighbor list builds = 4408
Dangerous builds = 0
Total wall time: 0:01:37
