LAMMPS (12 Dec 2018)
  using 1 OpenMP thread(s) per MPI task
# 3D LENNARD-JONES GAS #

units lj            # Lennard-Jones units
dimension 3
boundary p p p      # Periodic boundaries
atom_style atomic   # Simplest complexity of each particle

lattice fcc 0.01    # Face-centered-cubic shape of lattice, density scale
Lattice spacing in x,y,z = 7.36806 7.36806 7.36806
region simbox block 0 10 0 10 0 10 # Defines region of block
create_box 1 simbox # Creates box with 1 type of atoms
Created orthogonal box = (0 0 0) to (73.6806 73.6806 73.6806)
  1 by 1 by 1 MPI processor grid
create_atoms 1 box  # Fills box with atoms
Created 4000 atoms
  Time spent = 0 secs

mass 1 1.0          # Atoms of type 1 with in Lennard-Jones units
velocity all create 2.5 87287 dist uniform
# Velocity -> temperature 2.5 and seed

pair_style lj/cut 3.0 # Interaction is zero if distance is >3.0 lj
pair_coeff 1 1 1.0 1.0 3.0 # Interaction of atoms type 1 with type 1
# with 1.0 times simga, 1.0 times epsilon value and cutoff 3.0

fix 1 all nve       # Constant number (n) of type 1 atoms
                    # Constant volume of simbox
                    # Constant energy

# Simulation control:
dump 1 all custom 10 dump.lammpstrj id type x y z vx vy vz
thermo 100          # Log every 100 steps
run 10000            # Timesteps
Neighbor list info ...
  update every 1 steps, delay 10 steps, check yes
  max neighbors/atom: 2000, page size: 100000
  master list distance cutoff = 3.3
  ghost atom cutoff = 3.3
  binsize = 1.65, bins = 45 45 45
  1 neighbor lists, perpetual/occasional/extra = 1 0 0
  (1) pair lj/cut, perpetual
      attributes: half, newton on
      pair build: half/bin/atomonly/newton
      stencil: half/bin/3d/newton
      bin: standard
Per MPI rank memory allocation (min/avg/max) = 5.075 | 5.075 | 5.075 Mbytes
Step Temp E_pair E_mol TotEng Press 
       0          2.5            0            0    3.7490625   0.02499375 
     100    2.5004057 -0.0010269947            0    3.7486439  0.024977429 
     200    2.5244504 -0.038765606            0    3.7469633  0.025397011 
     300    2.5317778 -0.050251774            0    3.7464656  0.025198252 
     400    2.5272226 -0.043622377            0    3.7462637  0.025567372 
     500    2.5295476 -0.047263659            0    3.7461092  0.025325266 
     600    2.5311621 -0.049688566            0    3.7461054  0.025433131 
     700    2.5318219 -0.050686604            0    3.7460969  0.025397632 
     800    2.5372618 -0.058983634            0    3.7459576  0.025449969 
     900    2.5356637 -0.056526982            0    3.7460177  0.025433609 
    1000     2.537425 -0.059174334            0    3.7460116  0.025231933 
    1100     2.534844 -0.055418026            0    3.7458974  0.025298661 
    1200    2.5327697 -0.052334328            0    3.7458704  0.025449849 
    1300    2.5344688 -0.054820637            0    3.7459321  0.025268373 
    1400    2.5374592 -0.059286411            0    3.7459509  0.025286323 
    1500    2.5336081 -0.053422725            0    3.7460394  0.025309838 
    1600    2.5332835 -0.052954819            0    3.7460205  0.025170891 
    1700    2.5327296 -0.052091861            0    3.7460527  0.025155616 
    1800     2.536209 -0.057417158            0    3.7459453  0.025568883 
    1900    2.5385609 -0.061081035            0    3.7458084  0.025313055 
    2000    2.5366696 -0.058202173            0     3.745851  0.025222789 
    2100    2.5343475 -0.054691804            0    3.7458791  0.025144169 
    2200     2.534907 -0.055537143            0    3.7458727   0.02515093 
    2300     2.532494 -0.051929769            0    3.7458615  0.025502454 
    2400     2.538686 -0.061186853            0    3.7458902   0.02530689 
    2500    2.5383621  -0.06074534            0    3.7458459  0.025267485 
    2600    2.5375881 -0.059523365            0    3.7459071  0.025148657 
    2700    2.5356681  -0.05667983            0    3.7458715    0.0252789 
    2800     2.537233 -0.059032336            0    3.7458657   0.02530326 
    2900    2.5357867 -0.056772428            0    3.7459567  0.025295348 
    3000    2.5353562 -0.056057456            0    3.7460261  0.025155407 
    3100    2.5340995 -0.054258423            0    3.7459405  0.025515109 
    3200    2.5335392 -0.053399348            0    3.7459594  0.025310676 
    3300    2.5348537 -0.055316844            0    3.7460132  0.025256351 
    3400    2.5363982 -0.057763229            0     3.745883  0.025341349 
    3500    2.5332091 -0.052956393            0    3.7459073  0.025394422 
    3600    2.5364925 -0.057755808            0    3.7460318  0.025202896 
    3700    2.5366106 -0.057939682            0    3.7460249  0.025223672 
    3800    2.5309909 -0.049509511            0    3.7460278  0.025655905 
    3900      2.53696 -0.058590854            0    3.7458977  0.025226026 
    4000    2.5370974 -0.058812605            0    3.7458821  0.025322669 
    4100    2.5368869 -0.058485336            0    3.7458937  0.025120168 
    4200    2.5372791 -0.059112961            0    3.7458542  0.025374813 
    4300    2.5335814 -0.053363111            0     3.746059  0.025271228 
    4400    2.5366116 -0.057984526            0    3.7459816  0.025134634 
    4500    2.5357728 -0.056841129            0    3.7458672  0.025441996 
    4600    2.5379705 -0.060066936            0    3.7459371  0.025313721 
    4700    2.5353007 -0.056075905            0    3.7459245  0.025320508 
    4800    2.5349908 -0.055493346            0    3.7460423  0.025474486 
    4900    2.5355745 -0.056400672            0    3.7460103  0.025290606 
    5000    2.5337797 -0.053708849            0    3.7460106  0.025434936 
    5100    2.5322174 -0.051364324            0    3.7460122  0.025312368 
    5200    2.5343133  -0.05450047            0    3.7460191  0.025357004 
    5300    2.5374628 -0.059288977            0    3.7459537  0.025360959 
    5400    2.5402007 -0.063401063            0    3.7459473  0.025079393 
    5500    2.5360405 -0.057114679            0    3.7459951  0.025193853 
    5600    2.5371332 -0.058751547            0    3.7459968  0.025174305 
    5700    2.5400707 -0.063231841            0    3.7459217  0.025330171 
    5800      2.53972 -0.062650128            0    3.7459774  0.025370929 
    5900    2.5340626 -0.054265377            0    3.7458782  0.025481581 
    6000    2.5381502  -0.06036901            0    3.7459045  0.025174704 
    6100    2.5385555 -0.060981147            0    3.7459002  0.025238836 
    6200    2.5375995 -0.059494125            0    3.7459535  0.024986827 
    6300    2.5361435 -0.057351929            0    3.7459123  0.025395137 
    6400    2.5372018  -0.05897513            0    3.7458761  0.025407443 
    6500    2.5358343 -0.056863592            0     3.745937  0.025358649 
    6600    2.5349147 -0.055544331            0    3.7458772  0.025272493 
    6700    2.5366057 -0.058024279            0    3.7459331  0.025196977 
    6800    2.5371565 -0.058848629            0    3.7459347   0.02526672 
    6900    2.5430967   -0.0678441            0    3.7458473  0.025088008 
    7000    2.5380093 -0.060251176            0     3.745811  0.025268213 
    7100     2.536794 -0.058419973            0    3.7458198  0.025379128 
    7200    2.5373176 -0.059196353            0    3.7458285  0.025484985 
    7300    2.5384104 -0.060875261            0    3.7457884  0.025317326 
    7400    2.5382911 -0.060705535            0    3.7457792    0.0253054 
    7500    2.5399433 -0.063147876            0    3.7458146  0.025119187 
    7600    2.5370328 -0.058695185            0    3.7459027  0.024977347 
    7700     2.536117 -0.057236465            0     3.745988  0.025305924 
    7800    2.5338483 -0.053824908            0    3.7459973  0.025318269 
    7900    2.5361113 -0.057262514            0    3.7459534  0.025366213 
    8000    2.5369457  -0.05854447            0    3.7459228  0.025182333 
    8100    2.5375019  -0.05942038            0    3.7458809  0.025270607 
    8200    2.5382757 -0.060667136            0    3.7457945  0.025225841 
    8300    2.5357845 -0.056864983            0    3.7458608  0.025241258 
    8400    2.5314396 -0.050285179            0    3.7459249  0.025536728 
    8500    2.5382739 -0.060540007            0    3.7459189  0.025346944 
    8600    2.5349772  -0.05565325            0    3.7458619  0.025609612 
    8700    2.5364561 -0.057875216            0    3.7458578  0.025133148 
    8800    2.5344706 -0.054920316            0    3.7458352   0.02578184 
    8900    2.5354599 -0.056338807            0    3.7459002  0.025274395 
    9000    2.5379455 -0.060065944            0    3.7459005  0.025286429 
    9100     2.535907 -0.056977153            0    3.7459323  0.025284392 
    9200    2.5379331 -0.059967592            0    3.7459804  0.024985459 
    9300     2.537405  -0.05920023            0    3.7459558  0.025147973 
    9400    2.5391437 -0.061803148            0    3.7459603  0.025425733 
    9500    2.5381688 -0.060336045            0    3.7459654  0.025178506 
    9600    2.5390474 -0.061592349            0    3.7460266  0.025228397 
    9700    2.5391004 -0.061805195            0    3.7458932  0.025203257 
    9800    2.5341035 -0.054386171            0    3.7458188  0.025416531 
    9900    2.5352746 -0.056064264            0     3.745897  0.025402093 
   10000    2.5355625 -0.056587496            0    3.7458055  0.025316782 
Loop time of 11.9523 on 1 procs for 10000 steps with 4000 atoms

Performance: 361437.437 tau/day, 836.661 timesteps/s
95.0% CPU use with 1 MPI tasks x 1 OpenMP threads

MPI task timing breakdown:
Section |  min time  |  avg time  |  max time  |%varavg| %total
---------------------------------------------------------------
Pair    | 0.55939    | 0.55939    | 0.55939    |   0.0 |  4.68
Neigh   | 0.87673    | 0.87673    | 0.87673    |   0.0 |  7.34
Comm    | 0.10998    | 0.10998    | 0.10998    |   0.0 |  0.92
Output  | 10.099     | 10.099     | 10.099     |   0.0 | 84.50
Modify  | 0.24501    | 0.24501    | 0.24501    |   0.0 |  2.05
Other   |            | 0.06201    |            |       |  0.52

Nlocal:    4000 ave 4000 max 4000 min
Histogram: 1 0 0 0 0 0 0 0 0 0
Nghost:    1172 ave 1172 max 1172 min
Histogram: 1 0 0 0 0 0 0 0 0 0
Neighs:    3058 ave 3058 max 3058 min
Histogram: 1 0 0 0 0 0 0 0 0 0

Total # of neighbors = 3058
Ave neighs/atom = 0.7645
Neighbor list builds = 1000
Dangerous builds = 1000
Total wall time: 0:00:12
