LAMMPS (9 Nov 2016)
OMP_NUM_THREADS environment is not set. Defaulting to 1 thread. (../comm.cpp:90)
  using 1 OpenMP thread(s) per MPI task
# 3D LENNARD-JONES GAS #

units lj            # Lennard-Jones units
dimension 3
boundary p p p      # Periodic boundaries
atom_style atomic   # Simplest complexity of each particle

lattice fcc 0.1   # Face-centered-cubic shape of lattice, density scale
Lattice spacing in x,y,z = 3.41995 3.41995 3.41995
region simbox block 0 10 0 10 0 10 # Defines region of block
create_box 1 simbox # Creates box with 1 type of atoms
Created orthogonal box = (0 0 0) to (34.1995 34.1995 34.1995)
  1 by 1 by 1 MPI processor grid
create_atoms 1 box  # Fills box with atoms
Created 4000 atoms

mass 1 1.0          # Atoms of type 1 with in Lennard-Jones units
velocity all create 0.69 87287 dist uniform
# Velocity -> temperature 2.5 and seed

pair_style lj/cut 3.0 # Interaction is zero if distance is >3.0 lj
pair_coeff 1 1 1.0 1.0 3.0 # Interaction of atoms type 1 with type 1
# with 1.0 times simga, 1.0 times epsilon value and cutoff 3.0

compute KE all ke
compute PE all pe
compute TEMP all temp
compute MSD all msd com yes average yes
compute RDF all rdf 100 1 1
compute PRESS all pressure thermo_temp

fix 1 all nve       # Constant number (n) of type 1 atoms
                    # Constant volume of simbox
                    # Constant energy

# Simulation control:
timestep 0.005
thermo_style custom pe ke press temp density
fix 2 all ave/time 1 1 1 c_KE c_PE c_PRESS c_TEMP file compute.txt
fix 3 all ave/time 1 1 1 c_MSD file msd.txt mode vector
fix 4 all ave/time 1 1 1 c_RDF[*] file rdf.txt mode vector

dump 1 all custom 10 dump.lammpstrj id type x y z vx vy vz
thermo 100          # Log every 100 steps
run 10000           # Timesteps
Neighbor list info ...
  2 neighbor list requests
  update every 1 steps, delay 10 steps, check yes
  max neighbors/atom: 2000, page size: 100000
  master list distance cutoff = 3.3
  ghost atom cutoff = 3.3
  binsize = 1.65 -> bins = 21 21 21
Memory usage per processor = 4.468 Mbytes
PotEng KinEng Press Temp Density 
     -0.1194    1.0347412   0.04522275         0.69          0.1 
  -0.2994041    1.2183079  0.063312159   0.81240835          0.1 
 -0.54507393     1.464606  0.071003833   0.97664818          0.1 
 -0.60966136    1.5282883  0.077236701    1.0191136          0.1 
 -0.64115462    1.5591247   0.07044029    1.0396764          0.1 
  -0.6711937    1.5883786  0.072737976    1.0591838          0.1 
  -0.7126052    1.6293007  0.075121892    1.0864721          0.1 
 -0.72812177    1.6445099  0.079984304    1.0966141          0.1 
 -0.73607892    1.6523421  0.074274745    1.1018369          0.1 
  -0.7498201    1.6659703   0.07559588    1.1109246          0.1 
 -0.76513022    1.6811466  0.076239784    1.1210447          0.1 
  -0.7680568    1.6840791  0.072743616    1.1230002          0.1 
 -0.75733299    1.6734677  0.081436531    1.1159241          0.1 
 -0.76244303    1.6785218  0.075155091    1.1192944          0.1 
 -0.77762813    1.6932486  0.072538107    1.1291147          0.1 
 -0.77562854    1.6912139  0.074464945    1.1277579          0.1 
   -0.780022    1.6951427  0.082845715    1.1303777          0.1 
 -0.80839498     1.723449  0.071827764    1.1492533          0.1 
 -0.80034934    1.7151822  0.073633642    1.1437407          0.1 
 -0.78692969    1.7020431  0.075191798    1.1349792          0.1 
 -0.78148444    1.6964966  0.083805666    1.1312805          0.1 
 -0.80451473    1.7195612  0.073557005    1.1466608          0.1 
 -0.80567567    1.7206534  0.077014615    1.1473891          0.1 
 -0.79973001    1.7146266  0.081533189    1.1433702          0.1 
 -0.79564942    1.7105985  0.081365411    1.1406842          0.1 
 -0.79071881    1.7057727  0.079599489    1.1374661          0.1 
 -0.78703248    1.7019649  0.076894097     1.134927          0.1 
 -0.79966832    1.7145628  0.080996893    1.1433277          0.1 
 -0.80339901    1.7178558  0.075760558    1.1455236          0.1 
  -0.8022215    1.7164986  0.080603413    1.1446185          0.1 
 -0.79640586    1.7106693  0.074536543    1.1407314          0.1 
 -0.80915155    1.7235593  0.073272746    1.1493269          0.1 
  -0.8206611    1.7349772  0.078985219    1.1569407          0.1 
 -0.81636661    1.7304488  0.070590728     1.153921          0.1 
 -0.81550929    1.7295632  0.077112115    1.1533305          0.1 
 -0.80475694    1.7188396  0.081724443    1.1461796          0.1 
 -0.81042847     1.724531  0.078881308    1.1499749          0.1 
 -0.80272926    1.7170056  0.076835305    1.1449566          0.1 
   -0.808033    1.7221395  0.069996533    1.1483801          0.1 
 -0.81819691    1.7322858  0.075674945     1.155146          0.1 
 -0.80848216     1.722577  0.076805418    1.1486718          0.1 
 -0.83376283    1.7479214   0.07967815    1.1655723          0.1 
 -0.81172343    1.7258895  0.081747161    1.1508807          0.1 
 -0.81928407    1.7334337  0.080977314    1.1559114          0.1 
 -0.81627907    1.7304033  0.079545206    1.1538907          0.1 
 -0.81319298    1.7276181  0.077045271    1.1520334          0.1 
 -0.82507097    1.7394341  0.074177787    1.1599127          0.1 
 -0.83896963    1.7533332  0.080476705    1.1691811          0.1 
 -0.82203148    1.7364021  0.075856662    1.1578909          0.1 
 -0.82489696    1.7394521  0.080364419    1.1599247          0.1 
 -0.82360748    1.7380774  0.080341991     1.159008          0.1 
 -0.83295435    1.7473102  0.082426075    1.1651648          0.1 
 -0.81858449    1.7329644  0.075092191    1.1555985          0.1 
 -0.82285829    1.7373631  0.073254826    1.1585317          0.1 
 -0.80437491    1.7187518  0.084292654    1.1461211          0.1 
 -0.81545539    1.7297537  0.080943982    1.1534575          0.1 
 -0.81531946    1.7296747  0.080728532    1.1534048          0.1 
 -0.83185725    1.7460745  0.076705222    1.1643407          0.1 
 -0.81509756    1.7291191  0.079783789    1.1530343          0.1 
 -0.82222663    1.7362567  0.082854103    1.1577939          0.1 
 -0.83014801    1.7439265  0.092738565    1.1629084          0.1 
 -0.84508717     1.758944  0.079905062    1.1729225          0.1 
 -0.81129857    1.7255837  0.075457914    1.1506768          0.1 
 -0.81304424    1.7274446  0.083195706    1.1519177          0.1 
 -0.81694315    1.7315587  0.080188051    1.1546611          0.1 
 -0.81619688    1.7307684  0.078278641    1.1541342          0.1 
 -0.82458668     1.738991  0.079228846    1.1596172          0.1 
 -0.83184524    1.7459552  0.076583648    1.1642612          0.1 
 -0.82846167    1.7425056  0.076176829    1.1619609          0.1 
 -0.81736275    1.7313457  0.072357062    1.1545191          0.1 
 -0.81372764    1.7276976  0.078259721    1.1520865          0.1 
 -0.81899129    1.7331068  0.080691186    1.1556935          0.1 
 -0.80890574    1.7232082  0.079976555    1.1490927          0.1 
 -0.81588135     1.730159  0.079086809    1.1537277          0.1 
 -0.81472657     1.729174  0.076165253    1.1530709          0.1 
 -0.82330775    1.7377635  0.079696921    1.1587987          0.1 
 -0.82090808    1.7354088  0.075464772    1.1572285          0.1 
 -0.80724306    1.7217844  0.076285923    1.1481433          0.1 
 -0.79409573    1.7083175  0.079909301    1.1391631          0.1 
 -0.82587725    1.7401571  0.077326695    1.1603948          0.1 
 -0.82562945    1.7397977  0.078504246    1.1601551          0.1 
 -0.82583865    1.7400855  0.076569479    1.1603471          0.1 
 -0.82212227     1.736125  0.075132479    1.1577061          0.1 
 -0.82778853     1.741908  0.077815566    1.1615624          0.1 
 -0.80668626    1.7209242  0.086493773    1.1475697          0.1 
 -0.80399353      1.71823  0.077540489    1.1457731          0.1 
 -0.80149012    1.7155905  0.081113673     1.144013          0.1 
 -0.80793196    1.7219516  0.074097877    1.1482548          0.1 
 -0.81714615    1.7311821  0.082881612      1.15441          0.1 
 -0.80324322    1.7175146  0.083489731     1.145296          0.1 
 -0.81353472    1.7278212   0.08218722    1.1521688          0.1 
 -0.81867431    1.7329184  0.075273819    1.1555678          0.1 
 -0.82552092    1.7398781  0.077715432    1.1602088          0.1 
 -0.81729347    1.7316114  0.079877295    1.1546963          0.1 
 -0.80350608    1.7178191  0.084187581    1.1454991          0.1 
 -0.81345331    1.7277774  0.079389766    1.1521396          0.1 
 -0.81207892    1.7265244  0.071216279    1.1513041          0.1 
 -0.81626004    1.7307223  0.077131043    1.1541034          0.1 
 -0.83006577    1.7445661  0.077494227    1.1633349          0.1 
 -0.81333039    1.7274851  0.082641754    1.1519447          0.1 
 -0.81726881    1.7312181  0.082766212     1.154434          0.1 
Loop time of 49.2893 on 1 procs for 10000 steps with 4000 atoms

Performance: 87645.777 tau/day, 202.884 timesteps/s
98.2% CPU use with 1 MPI tasks x 1 OpenMP threads

MPI task timing breakdown:
Section |  min time  |  avg time  |  max time  |%varavg| %total
---------------------------------------------------------------
Pair    | 15.061     | 15.061     | 15.061     |   0.0 | 30.56
Neigh   | 4.2017     | 4.2017     | 4.2017     |   0.0 |  8.52
Comm    | 0.50263    | 0.50263    | 0.50263    |   0.0 |  1.02
Output  | 12.2       | 12.2       | 12.2       |   0.0 | 24.75
Modify  | 17.145     | 17.145     | 17.145     |   0.0 | 34.78
Other   |            | 0.1797     |            |       |  0.36

Nlocal:    4000 ave 4000 max 4000 min
Histogram: 1 0 0 0 0 0 0 0 0 0
Nghost:    2772 ave 2772 max 2772 min
Histogram: 1 0 0 0 0 0 0 0 0 0
Neighs:    32649 ave 32649 max 32649 min
Histogram: 1 0 0 0 0 0 0 0 0 0

Total # of neighbors = 32649
Ave neighs/atom = 8.16225
Neighbor list builds = 998
Dangerous builds = 990
Total wall time: 0:00:49
