LAMMPS (17 Nov 2015)
WARNING: OMP_NUM_THREADS environment is not set. (../comm.cpp:90)
  using 1 OpenMP thread(s) per MPI task
# 3D LENNARD-JONES GAS #

units lj            # Lennard-Jones units
dimension 3
boundary p p p      # Periodic boundaries
atom_style atomic   # Simplest complexity of each particle

lattice fcc 0.01    # Face-centered-cubic shape of lattice, density scale
Lattice spacing in x,y,z = 7.36806 7.36806 7.36806
region simbox block 0 10 0 10 0 10 # Defines region of block
create_box 1 simbox # Creates box with 1 type of atoms
Created orthogonal box = (0 0 0) to (73.6806 73.6806 73.6806)
  1 by 1 by 1 MPI processor grid
create_atoms 1 box  # Fills box with atoms
Created 4000 atoms

mass 1 1.0          # Atoms of type 1 with in Lennard-Jones units
velocity all create 2.5 87287 dist uniform
# Velocity -> temperature 2.5 and seed

pair_style lj/cut 3.0 # Interaction is zero if distance is >3.0 lj
pair_coeff 1 1 1.0 1.0 3.0 # Interaction of atoms type 1 with type 1
# with 1.0 times simga, 1.0 times epsilon value and cutoff 3.0

fix 1 all nve       # Constant number (n) of type 1 atoms
                    # Constant volume of simbox
                    # Constant energy

compute 1 all ke
compute 2 all pe
compute 3 all pressure thermo_temp

# Simulation control:
timestep 0.005
thermo_style custom pe ke press
dump 1 all custom 10 dump.lammpstrj id type x y z vx vy vz
thermo 100          # Log every 100 steps
run 10000            # Timesteps
Neighbor list info ...
  1 neighbor list requests
  update every 1 steps, delay 10 steps, check yes
  max neighbors/atom: 2000, page size: 100000
  master list distance cutoff = 3.3
  ghost atom cutoff = 3.3
  binsize = 1.65 -> bins = 45 45 45
Memory usage per processor = 4.46791 Mbytes
PotEng KinEng Press 
           0    3.7490625   0.02499375 
-0.0010269947    3.7496709  0.024977429 
-0.038765606    3.7857289  0.025397011 
-0.050251774    3.7967173  0.025198252 
-0.043622377    3.7898861  0.025567372 
-0.047263659    3.7933729  0.025325266 
-0.049688566     3.795794  0.025433131 
-0.050686604    3.7967835  0.025397632 
-0.058983634    3.8049412  0.025449969 
-0.056526982    3.8025446  0.025433609 
-0.059174334    3.8051859  0.025231933 
-0.055418026    3.8013154  0.025298661 
-0.052334328    3.7982047  0.025449849 
-0.054820637    3.8007527  0.025268373 
-0.059286411    3.8052373  0.025286323 
-0.053422725    3.7994621  0.025309838 
-0.052954819    3.7989753  0.025170891 
-0.052091861    3.7981446  0.025155616 
-0.057417158    3.8033624  0.025568883 
-0.061081035    3.8068894  0.025313055 
-0.058202173    3.8040532  0.025222789 
-0.054691804    3.8005709  0.025144169 
-0.055537143    3.8014099   0.02515093 
-0.051929769    3.7977913  0.025502454 
-0.061186853     3.807077   0.02530689 
 -0.06074534    3.8065912  0.025267485 
-0.059523365    3.8054305  0.025148657 
 -0.05667983    3.8025513    0.0252789 
-0.059032336     3.804898   0.02530326 
-0.056772428    3.8027291  0.025295348 
-0.056057456    3.8020836  0.025155407 
-0.054258423     3.800199  0.025515109 
-0.053399348    3.7993588  0.025310676 
-0.055316844    3.8013301  0.025256351 
-0.057763229    3.8036462  0.025341349 
-0.052956393    3.7988637  0.025394422 
-0.057755808    3.8037876  0.025202896 
-0.057939682    3.8039646  0.025223672 
-0.049509511    3.7955373  0.025655905 
-0.058590854    3.8044886  0.025226026 
-0.058812605    3.8046947  0.025322669 
-0.058485336     3.804379  0.025120168 
-0.059112961    3.8049672  0.025374813 
-0.053363111    3.7994221  0.025271228 
-0.057984526    3.8039661  0.025134634 
-0.056841129    3.8027083  0.025441996 
-0.060066936    3.8060041  0.025313721 
-0.056075905    3.8020004  0.025320508 
-0.055493346    3.8015356  0.025474486 
-0.056400672     3.802411  0.025290606 
-0.053708849    3.7997194  0.025434936 
-0.051364324    3.7973765  0.025312368 
 -0.05450047    3.8005196  0.025357004 
-0.059288977    3.8052426  0.025360959 
-0.063401063    3.8093484  0.025079393 
-0.057114679    3.8031097  0.025193853 
-0.058751547    3.8047484  0.025174305 
-0.063231841    3.8091536  0.025330171 
-0.062650128    3.8086275  0.025370929 
-0.054265377    3.8001436  0.025481581 
 -0.06036901    3.8062736  0.025174704 
-0.060981147    3.8068813  0.025238836 
-0.059494125    3.8054476  0.024986827 
-0.057351929    3.8032642  0.025395137 
 -0.05897513    3.8048512  0.025407443 
-0.056863592    3.8028006  0.025358649 
-0.055544331    3.8014215  0.025272493 
-0.058024279    3.8039573  0.025196977 
-0.058848629    3.8047833   0.02526672 
  -0.0678441    3.8136914  0.025088008 
-0.060251176    3.8060621  0.025268213 
-0.058419973    3.8042398  0.025379128 
-0.059196353    3.8050249  0.025484985 
-0.060875261    3.8066637  0.025317326 
-0.060705535    3.8064847    0.0253054 
-0.063147876    3.8089625  0.025119187 
-0.058695185    3.8045979  0.024977347 
-0.057236465    3.8032244  0.025305924 
-0.053824908    3.7998222  0.025318269 
-0.057262514    3.8032159  0.025366213 
 -0.05854447    3.8044672  0.025182333 
 -0.05942038    3.8053012  0.025270607 
-0.060667136    3.8064616  0.025225841 
-0.056864983    3.8027258  0.025241258 
-0.050285179    3.7962101  0.025536728 
-0.060540007    3.8064589  0.025346944 
 -0.05565325    3.8015151  0.025609612 
-0.057875216     3.803733  0.025133148 
-0.054920316    3.8007555   0.02578184 
-0.056338807     3.802239  0.025274395 
-0.060065944    3.8059665  0.025286429 
-0.056977153    3.8029095  0.025284392 
-0.059967592     3.805948  0.024985459 
 -0.05920023     3.805156  0.025147973 
-0.061803148    3.8077634  0.025425733 
-0.060336045    3.8063014  0.025178506 
-0.061592349     3.807619  0.025228397 
-0.061805195    3.8076984  0.025203257 
-0.054386171     3.800205  0.025416531 
-0.056064264    3.8019612  0.025402093 
-0.056587496     3.802393  0.025316782 
Loop time of 21.6978 on 1 procs for 10000 steps with 4000 atoms

Performance: 199098.533 tau/day, 460.876 timesteps/s
97.8% CPU use with 1 MPI tasks x 1 OpenMP threads

MPI task timing breakdown:
Section |  min time  |  avg time  |  max time  |%varavg| %total
---------------------------------------------------------------
Pair    | 1.6839     | 1.6839     | 1.6839     |   0.0 |  7.76
Neigh   | 1.8879     | 1.8879     | 1.8879     |   0.0 |  8.70
Comm    | 0.32536    | 0.32536    | 0.32536    |   0.0 |  1.50
Output  | 16.82      | 16.82      | 16.82      |   0.0 | 77.52
Modify  | 0.799      | 0.799      | 0.799      |   0.0 |  3.68
Other   |            | 0.1811     |            |       |  0.83

Nlocal:    4000 ave 4000 max 4000 min
Histogram: 1 0 0 0 0 0 0 0 0 0
Nghost:    1172 ave 1172 max 1172 min
Histogram: 1 0 0 0 0 0 0 0 0 0
Neighs:    3058 ave 3058 max 3058 min
Histogram: 1 0 0 0 0 0 0 0 0 0

Total # of neighbors = 3058
Ave neighs/atom = 0.7645
Neighbor list builds = 1000
Dangerous builds = 1000
Total wall time: 0:00:22
