LAMMPS (17 Nov 2015)
WARNING: OMP_NUM_THREADS environment is not set. (../comm.cpp:90)
  using 1 OpenMP thread(s) per MPI task
# 3D LENNARD-JONES GAS #

units lj            # Lennard-Jones units
dimension 3
boundary p p p      # Periodic boundaries
atom_style atomic   # Simplest complexity of each particle

lattice fcc 0.01    # Face-centered-cubic shape of lattice, density scale
Lattice spacing in x,y,z = 7.36806 7.36806 7.36806
region simbox block 0 10 0 10 0 10 # Defines region of block
create_box 1 simbox # Creates box with 1 type of atoms
Created orthogonal box = (0 0 0) to (73.6806 73.6806 73.6806)
  1 by 1 by 1 MPI processor grid
create_atoms 1 box  # Fills box with atoms
Created 4000 atoms

mass 1 1.0          # Atoms of type 1 with in Lennard-Jones units
velocity all create 2.5 87287 dist uniform
# Velocity -> temperature 2.5 and seed

pair_style lj/cut 3.0 # Interaction is zero if distance is >3.0 lj
pair_coeff 1 1 1.0 1.0 3.0 # Interaction of atoms type 1 with type 1
# with 1.0 times simga, 1.0 times epsilon value and cutoff 3.0

fix 1 all nve       # Constant number (n) of type 1 atoms
                    # Constant volume of simbox
                    # Constant energy

# Simulation control:
timestep 0.0001
dump 1 all custom 10 dump.lammpstrj id type x y z vx vy vz
thermo 100          # Log every 100 steps
run 10000            # Timesteps
Neighbor list info ...
  1 neighbor list requests
  update every 1 steps, delay 10 steps, check yes
  max neighbors/atom: 2000, page size: 100000
  master list distance cutoff = 3.3
  ghost atom cutoff = 3.3
  binsize = 1.65 -> bins = 45 45 45
Memory usage per processor = 4.46791 Mbytes
Step Temp E_pair E_mol TotEng Press 
       0          2.5            0            0    3.7490625   0.02499375 
     100          2.5            0            0    3.7490625   0.02499375 
     200          2.5            0            0    3.7490625   0.02499375 
     300          2.5            0            0    3.7490625   0.02499375 
     400          2.5            0            0    3.7490625   0.02499375 
     500          2.5            0            0    3.7490625   0.02499375 
     600          2.5            0            0    3.7490625   0.02499375 
     700          2.5            0            0    3.7490625   0.02499375 
     800          2.5            0            0    3.7490625   0.02499375 
     900          2.5            0            0    3.7490625   0.02499375 
    1000          2.5            0            0    3.7490625   0.02499375 
    1100          2.5            0            0    3.7490625   0.02499375 
    1200          2.5            0            0    3.7490625   0.02499375 
    1300          2.5            0            0    3.7490625   0.02499375 
    1400          2.5            0            0    3.7490625   0.02499375 
    1500          2.5            0            0    3.7490625   0.02499375 
    1600          2.5            0            0    3.7490625   0.02499375 
    1700          2.5            0            0    3.7490625   0.02499375 
    1800          2.5            0            0    3.7490625   0.02499375 
    1900          2.5            0            0    3.7490625   0.02499375 
    2000          2.5            0            0    3.7490625   0.02499375 
    2100          2.5            0            0    3.7490625   0.02499375 
    2200          2.5            0            0    3.7490625   0.02499375 
    2300          2.5            0            0    3.7490625   0.02499375 
    2400          2.5            0            0    3.7490625   0.02499375 
    2500          2.5            0            0    3.7490625   0.02499375 
    2600          2.5            0            0    3.7490625   0.02499375 
    2700          2.5            0            0    3.7490625   0.02499375 
    2800          2.5            0            0    3.7490625   0.02499375 
    2900          2.5            0            0    3.7490625   0.02499375 
    3000          2.5            0            0    3.7490625   0.02499375 
    3100          2.5            0            0    3.7490625   0.02499375 
    3200    2.5000001 -2.9567779e-06            0    3.7490598  0.024993692 
    3300    2.5000005 -4.7945126e-06            0    3.7490584  0.024993659 
    3400     2.500001 -8.3548928e-06            0    3.7490557  0.024993593 
    3500    2.5000021 -1.6782439e-05            0    3.7490488  0.024993436 
    3600    2.5000043 -3.1084099e-05            0    3.7490378  0.024993172 
    3700    2.5000075 -4.4070428e-05            0    3.7490296  0.024992945 
    3800    2.5000119 -6.038491e-05            0      3.74902  0.024992664 
    3900    2.5000179 -8.1621199e-05            0    3.7490077    0.0249923 
    4000    2.5000263 -0.00011754179            0    3.7489844  0.024991668 
    4100    2.5000374 -0.00014926649            0    3.7489693  0.024991147 
    4200    2.5000516 -0.00018970763            0    3.7489502  0.024990483 
    4300    2.5000698 -0.00024984155            0    3.7489173  0.024989466 
    4400    2.5000933 -0.00032481556            0    3.7488776  0.024988208 
    4500    2.5001231 -0.00041206921            0    3.7488351   0.02498677 
    4600    2.5001602 -0.00049913281            0    3.7488036  0.024985411 
    4700    2.5002055 -0.00061641394            0    3.7487543  0.024983535 
    4800    2.5002604 -0.00073568961            0    3.7487173  0.024981721 
    4900    2.5003264 -0.00087300605            0    3.7486789  0.024979667 
    5000    2.5004053 -0.0010269953            0    3.7486433  0.024977425 
    5100    2.5004999 -0.0012195699            0    3.7485926  0.024974593 
    5200    2.5006134 -0.0014363612            0    3.7485461  0.024971505 
    5300    2.5007493 -0.0016852828            0    3.7485009  0.024968064 
    5400    2.5009121 -0.0019760678            0    3.7484543  0.024964169 
    5500     2.501107 -0.0023148946            0    3.7484077  0.024959836 
    5600    2.5013392 -0.002700103            0    3.7483707  0.024955324 
    5700    2.5016128 -0.0031528688            0    3.7483283  0.024950607 
    5800    2.5019254 -0.0036435444            0    3.7483063  0.024947023 
    5900    2.5022539 -0.0041867929            0    3.7482557  0.024945812 
    6000    2.5025142 -0.0046183704            0    3.7482146  0.024953498 
    6100    2.5024907 -0.0046214368            0    3.7481762  0.024982518 
    6200    2.5019827 -0.003904835            0     3.748131  0.025042502 
    6300    2.5018114 -0.0036985482            0    3.7480803  0.025085613 
    6400    2.5029473 -0.0054294143            0    3.7480529  0.025058908 
    6500    2.5040768 -0.007169859            0    3.7480063  0.025036465 
    6600    2.5044241 -0.0077290571            0     3.747968  0.025065897 
    6700    2.5039782 -0.0071014945            0    3.7479269  0.025148631 
    6800    2.5030518 -0.0057491575            0    3.7478899  0.025264763 
    6900    2.5019961 -0.0042029913            0    3.7478529   0.02538926 
    7000    2.5014701 -0.003444328            0    3.7478228  0.025479401 
    7100     2.502509 -0.0050502714            0    3.7477748  0.025474736 
    7200    2.5043761 -0.0078898512            0    3.7477351   0.02541832 
    7300    2.5059605 -0.010298815            0    3.7477022  0.025377021 
    7400    2.5068506 -0.011673343            0    3.7476625  0.025377718 
    7500    2.5072469 -0.012310118            0      3.74762  0.025410521 
    7600    2.5075528 -0.012811314            0    3.7475776  0.025452136 
    7700    2.5078542 -0.013286553            0    3.7475543  0.025496557 
    7800    2.5080078 -0.013538897            0    3.7475324  0.025549323 
    7900    2.5082882 -0.013989421            0    3.7475022  0.025592575 
    8000    2.5094278 -0.015729939            0    3.7474707  0.025584862 
    8100    2.5111709 -0.018380917            0    3.7474337  0.025542012 
    8200    2.5124539 -0.020317316            0    3.7474214  0.025527191 
    8300    2.5128015 -0.020868676            0    3.7473913  0.025568301 
    8400    2.5124876 -0.020415764            0    3.7473735  0.025649443 
    8500    2.5118473  -0.01947205            0     3.747357  0.025746959 
    8600    2.5113095 -0.018688776            0    3.7473337  0.025830435 
    8700    2.5116289 -0.019199281            0    3.7473022  0.025852801 
    8800    2.5129848 -0.021255926            0    3.7472789  0.025802363 
    8900    2.5149602 -0.024252565            0    3.7472447  0.025703736 
    9000    2.5171611 -0.027583221            0    3.7472146  0.025584049 
    9100    2.5191118 -0.030529028            0     3.747194  0.025475354 
    9200    2.5205545  -0.03271994            0    3.7471666  0.025396076 
    9300    2.5215768 -0.034281804            0    3.7471378  0.025343796 
    9400    2.5224991 -0.035688113            0    3.7471146  0.025301592 
    9500    2.5235816 -0.037323826            0    3.7471022  0.025255776 
    9600    2.5246634 -0.038974865            0    3.7470735  0.025216161 
    9700    2.5254134 -0.040111944            0    3.7470611  0.025203699 
    9800    2.5256531 -0.040497363            0    3.7470351  0.025228983 
    9900    2.5253305 -0.040036917            0    3.7470118  0.025294818 
   10000    2.5244858 -0.038793509            0    3.7469885  0.025396439 
Loop time of 18.5918 on 1 procs for 10000 steps with 4000 atoms

Performance: 4647.222 tau/day, 537.873 timesteps/s
82.8% CPU use with 1 MPI tasks x 1 OpenMP threads

MPI task timing breakdown:
Section |  min time  |  avg time  |  max time  |%varavg| %total
---------------------------------------------------------------
Pair    | 0.53362    | 0.53362    | 0.53362    |   0.0 |  2.87
Neigh   | 0.04607    | 0.04607    | 0.04607    |   0.0 |  0.25
Comm    | 0.13229    | 0.13229    | 0.13229    |   0.0 |  0.71
Output  | 16.866     | 16.866     | 16.866     |   0.0 | 90.72
Modify  | 0.69118    | 0.69118    | 0.69118    |   0.0 |  3.72
Other   |            | 0.3225     |            |       |  1.73

Nlocal:    4000 ave 4000 max 4000 min
Histogram: 1 0 0 0 0 0 0 0 0 0
Nghost:    1228 ave 1228 max 1228 min
Histogram: 1 0 0 0 0 0 0 0 0 0
Neighs:    2046 ave 2046 max 2046 min
Histogram: 1 0 0 0 0 0 0 0 0 0

Total # of neighbors = 2046
Ave neighs/atom = 0.5115
Neighbor list builds = 31
Dangerous builds = 0
Total wall time: 0:00:19
